 Entering Gaussian System, Link 0=g16
 Initial command:
 /apps/cent7/gaussian/g16-A.03/g16-haswell/g16/l1.exe "/scratch/brown/finej/0051_imine_mechanism/ts_631gd/acyclic_complete/new_logs_2/Gau-245335.inp" -scrdir="/scratch/brown/finej/0051_imine_mechanism/ts_631gd/acyclic_complete/new_logs_2/"
 Entering Link 1 = /apps/cent7/gaussian/g16-A.03/g16-haswell/g16/l1.exe PID=    245336.
  
 Copyright (c) 1988,1990,1992,1993,1995,1998,2003,2009,2016,
            Gaussian, Inc.  All Rights Reserved.
  
 This is part of the Gaussian(R) 16 program.  It is based on
 the Gaussian(R) 09 system (copyright 2009, Gaussian, Inc.),
 the Gaussian(R) 03 system (copyright 2003, Gaussian, Inc.),
 the Gaussian(R) 98 system (copyright 1998, Gaussian, Inc.),
 the Gaussian(R) 94 system (copyright 1995, Gaussian, Inc.),
 the Gaussian 92(TM) system (copyright 1992, Gaussian, Inc.),
 the Gaussian 90(TM) system (copyright 1990, Gaussian, Inc.),
 the Gaussian 88(TM) system (copyright 1988, Gaussian, Inc.),
 the Gaussian 86(TM) system (copyright 1986, Carnegie Mellon
 University), and the Gaussian 82(TM) system (copyright 1983,
 Carnegie Mellon University). Gaussian is a federally registered
 trademark of Gaussian, Inc.
  
 This software contains proprietary and confidential information,
 including trade secrets, belonging to Gaussian, Inc.
  
 This software is provided under written license and may be
 used, copied, transmitted, or stored only in accord with that
 written license.
  
 The following legend is applicable only to US Government
 contracts under FAR:
  
                    RESTRICTED RIGHTS LEGEND
  
 Use, reproduction and disclosure by the US Government is
 subject to restrictions as set forth in subparagraphs (a)
 and (c) of the Commercial Computer Software - Restricted
 Rights clause in FAR 52.227-19.
  
 Gaussian, Inc.
 340 Quinnipiac St., Bldg. 40, Wallingford CT 06492
  
  
 ---------------------------------------------------------------
 Warning -- This program may not be used in any manner that
 competes with the business of Gaussian, Inc. or will provide
 assistance to any competitor of Gaussian, Inc.  The licensee
 of this program is prohibited from giving any competitor of
 Gaussian, Inc. access to this program.  By using this program,
 the user acknowledges that Gaussian, Inc. is engaged in the
 business of creating and licensing software in the field of
 computational chemistry and represents and warrants to the
 licensee that it is not a competitor of Gaussian, Inc. and that
 it will not use this program in any manner prohibited above.
 ---------------------------------------------------------------
  

 Cite this work as:
 Gaussian 16, Revision A.03,
 M. J. Frisch, G. W. Trucks, H. B. Schlegel, G. E. Scuseria, 
 M. A. Robb, J. R. Cheeseman, G. Scalmani, V. Barone, 
 G. A. Petersson, H. Nakatsuji, X. Li, M. Caricato, A. V. Marenich, 
 J. Bloino, B. G. Janesko, R. Gomperts, B. Mennucci, H. P. Hratchian, 
 J. V. Ortiz, A. F. Izmaylov, J. L. Sonnenberg, D. Williams-Young, 
 F. Ding, F. Lipparini, F. Egidi, J. Goings, B. Peng, A. Petrone, 
 T. Henderson, D. Ranasinghe, V. G. Zakrzewski, J. Gao, N. Rega, 
 G. Zheng, W. Liang, M. Hada, M. Ehara, K. Toyota, R. Fukuda, 
 J. Hasegawa, M. Ishida, T. Nakajima, Y. Honda, O. Kitao, H. Nakai, 
 T. Vreven, K. Throssell, J. A. Montgomery, Jr., J. E. Peralta, 
 F. Ogliaro, M. J. Bearpark, J. J. Heyd, E. N. Brothers, K. N. Kudin, 
 V. N. Staroverov, T. A. Keith, R. Kobayashi, J. Normand, 
 K. Raghavachari, A. P. Rendell, J. C. Burant, S. S. Iyengar, 
 J. Tomasi, M. Cossi, J. M. Millam, M. Klene, C. Adamo, R. Cammi, 
 J. W. Ochterski, R. L. Martin, K. Morokuma, O. Farkas, 
 J. B. Foresman, and D. J. Fox, Gaussian, Inc., Wallingford CT, 2016.
 
 ******************************************
 Gaussian 16:  ES64L-G16RevA.03 25-Dec-2016
                 4-Apr-2020 
 ******************************************
 %nprocshared=4
 Will use up to    4 processors via shared memory.
 %mem=1GB
 %oldchk=chk/acyclic_6.chk
 Copying data from "chk/acyclic_6.chk" to current chk file "/scratch/brown/finej/0051_imine_mechanism/ts_631gd/acyclic_complete/new_logs_2/Gau-245336.chk"
 IOpt=  2 FromEx=T IUOpen= 4 IOptOp= 5 NList=   0 IFRang= 0 IUIn= 4 IUOut= 2.
 ----------------------------------------------------------------------
 # freq=readfc wb97xd/6-31g(d) scrf=solvent=dichloromethane geom=check 
 temperature=263.15
 ----------------------------------------------------------------------
 1/29=2,38=1,112=263150,172=1/1;
 2/12=2,40=1/2;
 7/8=1,25=11/16;
 99/5=2/99;
 ------------------
 Product oxadiazole
 ------------------
 Structure from the checkpoint file:  "/scratch/brown/finej/0051_imine_mechanism/ts_631gd/acyclic_complete/new_logs_2/Gau-245336.chk"
 Charge =  0 Multiplicity = 1
 Redundant internal coordinates found in file.  (old form).
 C,0,1.2248847881,1.6838408998,1.393773694
 C,0,1.7830289704,2.840777919,0.8648872725
 C,0,1.4637076115,3.2363981952,-0.4327594133
 C,0,0.5915014024,2.4670594152,-1.1960370791
 C,0,0.0427039499,1.3001146854,-0.6701520116
 C,0,6.2398577933,2.1618045432,0.0542226639
 C,0,3.2694453274,0.1065745935,-1.1480316794
 C,0,4.3138663929,1.0238350152,-1.1136396456
 C,0,5.1453089945,1.1282127438,0.0027236141
 C,0,4.921065453,0.2741282971,1.0898840647
 C,0,3.8850948424,-0.6473044463,1.0728119973
 C,0,3.0602510508,-0.7145589291,-0.0482835288
 O,0,0.9750217418,-1.6806357494,-1.3064409784
 O,0,2.222834553,-3.2082260822,0.2630794546
 S,0,1.7220151272,-1.8776725737,-0.0696925866
 N,0,0.8392087633,-1.4413364225,1.287033897
 C,0,-0.1739409315,-0.3843479566,1.2413911922
 C,0,0.355787653,0.903537723,0.6285144564
 N,0,-3.1257929244,-2.0328788281,-0.0609948905
 N,0,-1.795322548,-2.0843558294,0.3356909518
 C,0,-1.4633583563,-0.8776335053,0.6455036629
 O,0,-2.4859871623,-0.0087490738,0.4999966241
 C,0,-3.494136363,-0.7956605937,0.0485031812
 C,0,-4.7900108887,-0.1933436634,-0.2503602198
 C,0,-5.8366305189,-1.009469543,-0.6927033399
 C,0,-7.0732317514,-0.4478445389,-0.9824108505
 C,0,-7.2715345595,0.9243292772,-0.8334921524
 C,0,-6.2287841576,1.7363842971,-0.3936003725
 C,0,-4.987415746,1.182448394,-0.1011403842
 H,0,1.4806802882,1.3689420724,2.401907566
 H,0,2.4664422058,3.4335629299,1.4648284606
 H,0,1.8968206835,4.1414509946,-0.8476481969
 H,0,0.3417336906,2.7674610544,-2.2088802609
 H,0,-0.6142644573,0.6938044854,-1.2846737004
 H,0,6.6051331274,2.4070635609,-0.9469671513
 H,0,5.8671626196,3.0885327017,0.5066530808
 H,0,7.0854181801,1.818184442,0.6569732294
 H,0,2.6109985713,0.0429496764,-2.0062863895
 H,0,4.4754767415,1.6763275202,-1.9668916367
 H,0,5.5652979185,0.3365368474,1.9624040258
 H,0,3.7089457664,-1.2958781796,1.9246717275
 H,0,0.5129990321,-2.292442329,1.7388252058
 H,0,-0.3942521895,-0.1708633069,2.2951262746
 H,0,-5.6723685661,-2.0759192045,-0.8059996841
 H,0,-7.8844786002,-1.0818893417,-1.3253951664
 H,0,-8.2393512673,1.3601503895,-1.0611007454
 H,0,-6.3807015308,2.8047185335,-0.2780146418
 H,0,-4.1740185569,1.8146264359,0.2393420558
 Recover connectivity data from disk.
                           ----------------------------
                           !    Current Parameters    !
                           ! (Angstroms and Degrees)  !
 --------------------------                            --------------------------
 ! Name  Definition              Value          Derivative Info.                !
 --------------------------------------------------------------------------------
 ! R1    R(1,2)                  1.3892         estimate D2E/DX2                !
 ! R2    R(1,18)                 1.3964         estimate D2E/DX2                !
 ! R3    R(1,30)                 1.0867         estimate D2E/DX2                !
 ! R4    R(2,3)                  1.3937         estimate D2E/DX2                !
 ! R5    R(2,31)                 1.0855         estimate D2E/DX2                !
 ! R6    R(3,4)                  1.3911         estimate D2E/DX2                !
 ! R7    R(3,32)                 1.0857         estimate D2E/DX2                !
 ! R8    R(4,5)                  1.3927         estimate D2E/DX2                !
 ! R9    R(4,33)                 1.0856         estimate D2E/DX2                !
 ! R10   R(5,18)                 1.3935         estimate D2E/DX2                !
 ! R11   R(5,34)                 1.0848         estimate D2E/DX2                !
 ! R12   R(6,9)                  1.5063         estimate D2E/DX2                !
 ! R13   R(6,35)                 1.0936         estimate D2E/DX2                !
 ! R14   R(6,36)                 1.0965         estimate D2E/DX2                !
 ! R15   R(6,37)                 1.0938         estimate D2E/DX2                !
 ! R16   R(7,8)                  1.3905         estimate D2E/DX2                !
 ! R17   R(7,12)                 1.3883         estimate D2E/DX2                !
 ! R18   R(7,38)                 1.0836         estimate D2E/DX2                !
 ! R19   R(8,9)                  1.3959         estimate D2E/DX2                !
 ! R20   R(8,39)                 1.0862         estimate D2E/DX2                !
 ! R21   R(9,10)                 1.4006         estimate D2E/DX2                !
 ! R22   R(10,11)                1.3866         estimate D2E/DX2                !
 ! R23   R(10,40)                1.0864         estimate D2E/DX2                !
 ! R24   R(11,12)                1.3935         estimate D2E/DX2                !
 ! R25   R(11,41)                1.0851         estimate D2E/DX2                !
 ! R26   R(12,15)                1.7732         estimate D2E/DX2                !
 ! R27   R(13,15)                1.4582         estimate D2E/DX2                !
 ! R28   R(14,15)                1.4601         estimate D2E/DX2                !
 ! R29   R(15,16)                1.6764         estimate D2E/DX2                !
 ! R30   R(16,17)                1.4648         estimate D2E/DX2                !
 ! R31   R(16,42)                1.0173         estimate D2E/DX2                !
 ! R32   R(17,18)                1.5215         estimate D2E/DX2                !
 ! R33   R(17,21)                1.5037         estimate D2E/DX2                !
 ! R34   R(17,43)                1.0975         estimate D2E/DX2                !
 ! R35   R(19,20)                1.3893         estimate D2E/DX2                !
 ! R36   R(19,23)                1.2955         estimate D2E/DX2                !
 ! R37   R(20,21)                1.2893         estimate D2E/DX2                !
 ! R38   R(21,22)                1.3498         estimate D2E/DX2                !
 ! R39   R(22,23)                1.3563         estimate D2E/DX2                !
 ! R40   R(23,24)                1.4599         estimate D2E/DX2                !
 ! R41   R(24,25)                1.399          estimate D2E/DX2                !
 ! R42   R(24,29)                1.3979         estimate D2E/DX2                !
 ! R43   R(25,26)                1.3887         estimate D2E/DX2                !
 ! R44   R(25,44)                1.085          estimate D2E/DX2                !
 ! R45   R(26,27)                1.3944         estimate D2E/DX2                !
 ! R46   R(26,45)                1.0853         estimate D2E/DX2                !
 ! R47   R(27,28)                1.3929         estimate D2E/DX2                !
 ! R48   R(27,46)                1.0855         estimate D2E/DX2                !
 ! R49   R(28,29)                1.3905         estimate D2E/DX2                !
 ! R50   R(28,47)                1.0853         estimate D2E/DX2                !
 ! R51   R(29,48)                1.085          estimate D2E/DX2                !
 ! A1    A(2,1,18)             120.4522         estimate D2E/DX2                !
 ! A2    A(2,1,30)             119.9972         estimate D2E/DX2                !
 ! A3    A(18,1,30)            119.5373         estimate D2E/DX2                !
 ! A4    A(1,2,3)              119.9236         estimate D2E/DX2                !
 ! A5    A(1,2,31)             119.8235         estimate D2E/DX2                !
 ! A6    A(3,2,31)             120.2529         estimate D2E/DX2                !
 ! A7    A(2,3,4)              119.8369         estimate D2E/DX2                !
 ! A8    A(2,3,32)             120.0673         estimate D2E/DX2                !
 ! A9    A(4,3,32)             120.0955         estimate D2E/DX2                !
 ! A10   A(3,4,5)              120.2177         estimate D2E/DX2                !
 ! A11   A(3,4,33)             120.2076         estimate D2E/DX2                !
 ! A12   A(5,4,33)             119.5721         estimate D2E/DX2                !
 ! A13   A(4,5,18)             120.1222         estimate D2E/DX2                !
 ! A14   A(4,5,34)             119.5416         estimate D2E/DX2                !
 ! A15   A(18,5,34)            120.3263         estimate D2E/DX2                !
 ! A16   A(9,6,35)             111.4255         estimate D2E/DX2                !
 ! A17   A(9,6,36)             110.3064         estimate D2E/DX2                !
 ! A18   A(9,6,37)             111.4082         estimate D2E/DX2                !
 ! A19   A(35,6,36)            107.5609         estimate D2E/DX2                !
 ! A20   A(35,6,37)            108.4664         estimate D2E/DX2                !
 ! A21   A(36,6,37)            107.5107         estimate D2E/DX2                !
 ! A22   A(8,7,12)             118.9313         estimate D2E/DX2                !
 ! A23   A(8,7,38)             120.9806         estimate D2E/DX2                !
 ! A24   A(12,7,38)            120.0736         estimate D2E/DX2                !
 ! A25   A(7,8,9)              121.0991         estimate D2E/DX2                !
 ! A26   A(7,8,39)             119.2481         estimate D2E/DX2                !
 ! A27   A(9,8,39)             119.649          estimate D2E/DX2                !
 ! A28   A(6,9,8)              120.7617         estimate D2E/DX2                !
 ! A29   A(6,9,10)             120.5459         estimate D2E/DX2                !
 ! A30   A(8,9,10)             118.6737         estimate D2E/DX2                !
 ! A31   A(9,10,11)            121.0179         estimate D2E/DX2                !
 ! A32   A(9,10,40)            119.5667         estimate D2E/DX2                !
 ! A33   A(11,10,40)           119.4149         estimate D2E/DX2                !
 ! A34   A(10,11,12)           118.963          estimate D2E/DX2                !
 ! A35   A(10,11,41)           120.5871         estimate D2E/DX2                !
 ! A36   A(12,11,41)           120.4433         estimate D2E/DX2                !
 ! A37   A(7,12,11)            121.303          estimate D2E/DX2                !
 ! A38   A(7,12,15)            119.4799         estimate D2E/DX2                !
 ! A39   A(11,12,15)           119.2166         estimate D2E/DX2                !
 ! A40   A(12,15,13)           107.952          estimate D2E/DX2                !
 ! A41   A(12,15,14)           109.6411         estimate D2E/DX2                !
 ! A42   A(12,15,16)           102.5287         estimate D2E/DX2                !
 ! A43   A(13,15,14)           119.4811         estimate D2E/DX2                !
 ! A44   A(13,15,16)           112.4239         estimate D2E/DX2                !
 ! A45   A(14,15,16)           103.4949         estimate D2E/DX2                !
 ! A46   A(15,16,17)           121.7899         estimate D2E/DX2                !
 ! A47   A(15,16,42)           108.0903         estimate D2E/DX2                !
 ! A48   A(17,16,42)           113.3121         estimate D2E/DX2                !
 ! A49   A(16,17,18)           112.4906         estimate D2E/DX2                !
 ! A50   A(16,17,21)           111.6371         estimate D2E/DX2                !
 ! A51   A(16,17,43)           104.4353         estimate D2E/DX2                !
 ! A52   A(18,17,21)           114.6212         estimate D2E/DX2                !
 ! A53   A(18,17,43)           106.9774         estimate D2E/DX2                !
 ! A54   A(21,17,43)           105.7933         estimate D2E/DX2                !
 ! A55   A(1,18,5)             119.4424         estimate D2E/DX2                !
 ! A56   A(1,18,17)            117.9668         estimate D2E/DX2                !
 ! A57   A(5,18,17)            122.553          estimate D2E/DX2                !
 ! A58   A(20,19,23)           106.4712         estimate D2E/DX2                !
 ! A59   A(19,20,21)           106.29           estimate D2E/DX2                !
 ! A60   A(17,21,20)           128.539          estimate D2E/DX2                !
 ! A61   A(17,21,22)           118.7652         estimate D2E/DX2                !
 ! A62   A(20,21,22)           112.4273         estimate D2E/DX2                !
 ! A63   A(21,22,23)           103.0358         estimate D2E/DX2                !
 ! A64   A(19,23,22)           111.7704         estimate D2E/DX2                !
 ! A65   A(19,23,24)           128.9813         estimate D2E/DX2                !
 ! A66   A(22,23,24)           119.2469         estimate D2E/DX2                !
 ! A67   A(23,24,25)           119.2164         estimate D2E/DX2                !
 ! A68   A(23,24,29)           120.6336         estimate D2E/DX2                !
 ! A69   A(25,24,29)           120.1498         estimate D2E/DX2                !
 ! A70   A(24,25,26)           119.7501         estimate D2E/DX2                !
 ! A71   A(24,25,44)           119.5493         estimate D2E/DX2                !
 ! A72   A(26,25,44)           120.7006         estimate D2E/DX2                !
 ! A73   A(25,26,27)           120.1542         estimate D2E/DX2                !
 ! A74   A(25,26,45)           119.689          estimate D2E/DX2                !
 ! A75   A(27,26,45)           120.1568         estimate D2E/DX2                !
 ! A76   A(26,27,28)           120.0631         estimate D2E/DX2                !
 ! A77   A(26,27,46)           119.9651         estimate D2E/DX2                !
 ! A78   A(28,27,46)           119.9718         estimate D2E/DX2                !
 ! A79   A(27,28,29)           120.1659         estimate D2E/DX2                !
 ! A80   A(27,28,47)           120.1812         estimate D2E/DX2                !
 ! A81   A(29,28,47)           119.6529         estimate D2E/DX2                !
 ! A82   A(24,29,28)           119.717          estimate D2E/DX2                !
 ! A83   A(24,29,48)           120.072          estimate D2E/DX2                !
 ! A84   A(28,29,48)           120.2109         estimate D2E/DX2                !
 ! D1    D(18,1,2,3)             0.7292         estimate D2E/DX2                !
 ! D2    D(18,1,2,31)         -179.291          estimate D2E/DX2                !
 ! D3    D(30,1,2,3)           179.3938         estimate D2E/DX2                !
 ! D4    D(30,1,2,31)           -0.6264         estimate D2E/DX2                !
 ! D5    D(2,1,18,5)            -0.5047         estimate D2E/DX2                !
 ! D6    D(2,1,18,17)          177.3183         estimate D2E/DX2                !
 ! D7    D(30,1,18,5)         -179.1754         estimate D2E/DX2                !
 ! D8    D(30,1,18,17)          -1.3525         estimate D2E/DX2                !
 ! D9    D(1,2,3,4)             -0.3035         estimate D2E/DX2                !
 ! D10   D(1,2,3,32)           179.8597         estimate D2E/DX2                !
 ! D11   D(31,2,3,4)           179.7168         estimate D2E/DX2                !
 ! D12   D(31,2,3,32)           -0.1201         estimate D2E/DX2                !
 ! D13   D(2,3,4,5)             -0.3423         estimate D2E/DX2                !
 ! D14   D(2,3,4,33)          -179.7545         estimate D2E/DX2                !
 ! D15   D(32,3,4,5)           179.4946         estimate D2E/DX2                !
 ! D16   D(32,3,4,33)            0.0823         estimate D2E/DX2                !
 ! D17   D(3,4,5,18)             0.5661         estimate D2E/DX2                !
 ! D18   D(3,4,5,34)          -178.2908         estimate D2E/DX2                !
 ! D19   D(33,4,5,18)          179.9821         estimate D2E/DX2                !
 ! D20   D(33,4,5,34)            1.1251         estimate D2E/DX2                !
 ! D21   D(4,5,18,1)            -0.1431         estimate D2E/DX2                !
 ! D22   D(4,5,18,17)         -177.8619         estimate D2E/DX2                !
 ! D23   D(34,5,18,1)          178.7048         estimate D2E/DX2                !
 ! D24   D(34,5,18,17)           0.986          estimate D2E/DX2                !
 ! D25   D(35,6,9,8)           -28.4531         estimate D2E/DX2                !
 ! D26   D(35,6,9,10)          153.1393         estimate D2E/DX2                !
 ! D27   D(36,6,9,8)            90.9403         estimate D2E/DX2                !
 ! D28   D(36,6,9,10)          -87.4673         estimate D2E/DX2                !
 ! D29   D(37,6,9,8)          -149.7404         estimate D2E/DX2                !
 ! D30   D(37,6,9,10)           31.8521         estimate D2E/DX2                !
 ! D31   D(12,7,8,9)            -0.0461         estimate D2E/DX2                !
 ! D32   D(12,7,8,39)         -179.337          estimate D2E/DX2                !
 ! D33   D(38,7,8,9)           178.5699         estimate D2E/DX2                !
 ! D34   D(38,7,8,39)           -0.721          estimate D2E/DX2                !
 ! D35   D(8,7,12,11)           -0.8912         estimate D2E/DX2                !
 ! D36   D(8,7,12,15)          179.3591         estimate D2E/DX2                !
 ! D37   D(38,7,12,11)        -179.5201         estimate D2E/DX2                !
 ! D38   D(38,7,12,15)           0.7302         estimate D2E/DX2                !
 ! D39   D(7,8,9,6)           -177.5398         estimate D2E/DX2                !
 ! D40   D(7,8,9,10)             0.8971         estimate D2E/DX2                !
 ! D41   D(39,8,9,6)             1.7483         estimate D2E/DX2                !
 ! D42   D(39,8,9,10)         -179.8149         estimate D2E/DX2                !
 ! D43   D(6,9,10,11)          177.596          estimate D2E/DX2                !
 ! D44   D(6,9,10,40)           -2.1306         estimate D2E/DX2                !
 ! D45   D(8,9,10,11)           -0.8443         estimate D2E/DX2                !
 ! D46   D(8,9,10,40)          179.429          estimate D2E/DX2                !
 ! D47   D(9,10,11,12)          -0.0565         estimate D2E/DX2                !
 ! D48   D(9,10,11,41)        -179.1232         estimate D2E/DX2                !
 ! D49   D(40,10,11,12)        179.6705         estimate D2E/DX2                !
 ! D50   D(40,10,11,41)          0.6039         estimate D2E/DX2                !
 ! D51   D(10,11,12,7)           0.942          estimate D2E/DX2                !
 ! D52   D(10,11,12,15)       -179.3076         estimate D2E/DX2                !
 ! D53   D(41,11,12,7)        -179.99           estimate D2E/DX2                !
 ! D54   D(41,11,12,15)         -0.2396         estimate D2E/DX2                !
 ! D55   D(7,12,15,13)          -3.8845         estimate D2E/DX2                !
 ! D56   D(7,12,15,14)         127.7911         estimate D2E/DX2                !
 ! D57   D(7,12,15,16)        -122.7501         estimate D2E/DX2                !
 ! D58   D(11,12,15,13)        176.3605         estimate D2E/DX2                !
 ! D59   D(11,12,15,14)        -51.9638         estimate D2E/DX2                !
 ! D60   D(11,12,15,16)         57.4949         estimate D2E/DX2                !
 ! D61   D(12,15,16,17)         85.4913         estimate D2E/DX2                !
 ! D62   D(12,15,16,42)       -140.6997         estimate D2E/DX2                !
 ! D63   D(13,15,16,17)        -30.1837         estimate D2E/DX2                !
 ! D64   D(13,15,16,42)        103.6253         estimate D2E/DX2                !
 ! D65   D(14,15,16,17)       -160.4651         estimate D2E/DX2                !
 ! D66   D(14,15,16,42)        -26.656          estimate D2E/DX2                !
 ! D67   D(15,16,17,18)        -51.345          estimate D2E/DX2                !
 ! D68   D(15,16,17,21)         79.1459         estimate D2E/DX2                !
 ! D69   D(15,16,17,43)       -166.9972         estimate D2E/DX2                !
 ! D70   D(42,16,17,18)        176.9826         estimate D2E/DX2                !
 ! D71   D(42,16,17,21)        -52.5265         estimate D2E/DX2                !
 ! D72   D(42,16,17,43)         61.3304         estimate D2E/DX2                !
 ! D73   D(16,17,18,1)         -74.0881         estimate D2E/DX2                !
 ! D74   D(16,17,18,5)         103.6626         estimate D2E/DX2                !
 ! D75   D(21,17,18,1)         156.9553         estimate D2E/DX2                !
 ! D76   D(21,17,18,5)         -25.294          estimate D2E/DX2                !
 ! D77   D(43,17,18,1)          40.0227         estimate D2E/DX2                !
 ! D78   D(43,17,18,5)        -142.2266         estimate D2E/DX2                !
 ! D79   D(16,17,21,20)          8.2697         estimate D2E/DX2                !
 ! D80   D(16,17,21,22)       -178.1706         estimate D2E/DX2                !
 ! D81   D(18,17,21,20)        137.6509         estimate D2E/DX2                !
 ! D82   D(18,17,21,22)        -48.7893         estimate D2E/DX2                !
 ! D83   D(43,17,21,20)       -104.7409         estimate D2E/DX2                !
 ! D84   D(43,17,21,22)         68.8188         estimate D2E/DX2                !
 ! D85   D(23,19,20,21)         -0.3437         estimate D2E/DX2                !
 ! D86   D(20,19,23,22)         -0.1198         estimate D2E/DX2                !
 ! D87   D(20,19,23,24)        179.4518         estimate D2E/DX2                !
 ! D88   D(19,20,21,17)        174.5883         estimate D2E/DX2                !
 ! D89   D(19,20,21,22)          0.6944         estimate D2E/DX2                !
 ! D90   D(17,21,22,23)       -175.2998         estimate D2E/DX2                !
 ! D91   D(20,21,22,23)         -0.7461         estimate D2E/DX2                !
 ! D92   D(21,22,23,19)          0.5084         estimate D2E/DX2                !
 ! D93   D(21,22,23,24)       -179.1099         estimate D2E/DX2                !
 ! D94   D(19,23,24,25)          1.6155         estimate D2E/DX2                !
 ! D95   D(19,23,24,29)       -178.2331         estimate D2E/DX2                !
 ! D96   D(22,23,24,25)       -178.8405         estimate D2E/DX2                !
 ! D97   D(22,23,24,29)          1.3109         estimate D2E/DX2                !
 ! D98   D(23,24,25,26)       -179.8881         estimate D2E/DX2                !
 ! D99   D(23,24,25,44)          0.0905         estimate D2E/DX2                !
 ! D100  D(29,24,25,26)         -0.0387         estimate D2E/DX2                !
 ! D101  D(29,24,25,44)        179.9399         estimate D2E/DX2                !
 ! D102  D(23,24,29,28)        179.8799         estimate D2E/DX2                !
 ! D103  D(23,24,29,48)          0.019          estimate D2E/DX2                !
 ! D104  D(25,24,29,28)          0.0327         estimate D2E/DX2                !
 ! D105  D(25,24,29,48)       -179.8282         estimate D2E/DX2                !
 ! D106  D(24,25,26,27)          0.0153         estimate D2E/DX2                !
 ! D107  D(24,25,26,45)       -179.9941         estimate D2E/DX2                !
 ! D108  D(44,25,26,27)       -179.9631         estimate D2E/DX2                !
 ! D109  D(44,25,26,45)          0.0276         estimate D2E/DX2                !
 ! D110  D(25,26,27,28)          0.0142         estimate D2E/DX2                !
 ! D111  D(25,26,27,46)        179.9825         estimate D2E/DX2                !
 ! D112  D(45,26,27,28)       -179.9765         estimate D2E/DX2                !
 ! D113  D(45,26,27,46)         -0.0081         estimate D2E/DX2                !
 ! D114  D(26,27,28,29)         -0.0203         estimate D2E/DX2                !
 ! D115  D(26,27,28,47)        179.9359         estimate D2E/DX2                !
 ! D116  D(46,27,28,29)       -179.9886         estimate D2E/DX2                !
 ! D117  D(46,27,28,47)         -0.0325         estimate D2E/DX2                !
 ! D118  D(27,28,29,24)         -0.0031         estimate D2E/DX2                !
 ! D119  D(27,28,29,48)        179.8575         estimate D2E/DX2                !
 ! D120  D(47,28,29,24)       -179.9595         estimate D2E/DX2                !
 ! D121  D(47,28,29,48)         -0.0989         estimate D2E/DX2                !
 --------------------------------------------------------------------------------
                          Input orientation:                          
 ---------------------------------------------------------------------
 Center     Atomic      Atomic             Coordinates (Angstroms)
 Number     Number       Type             X           Y           Z
 ---------------------------------------------------------------------
      1          6           0        1.224885    1.683841    1.393774
      2          6           0        1.783029    2.840778    0.864887
      3          6           0        1.463708    3.236398   -0.432759
      4          6           0        0.591501    2.467059   -1.196037
      5          6           0        0.042704    1.300115   -0.670152
      6          6           0        6.239858    2.161805    0.054223
      7          6           0        3.269445    0.106575   -1.148032
      8          6           0        4.313866    1.023835   -1.113640
      9          6           0        5.145309    1.128213    0.002724
     10          6           0        4.921065    0.274128    1.089884
     11          6           0        3.885095   -0.647304    1.072812
     12          6           0        3.060251   -0.714559   -0.048284
     13          8           0        0.975022   -1.680636   -1.306441
     14          8           0        2.222835   -3.208226    0.263079
     15         16           0        1.722015   -1.877673   -0.069693
     16          7           0        0.839209   -1.441336    1.287034
     17          6           0       -0.173941   -0.384348    1.241391
     18          6           0        0.355788    0.903538    0.628514
     19          7           0       -3.125793   -2.032879   -0.060995
     20          7           0       -1.795323   -2.084356    0.335691
     21          6           0       -1.463358   -0.877634    0.645504
     22          8           0       -2.485987   -0.008749    0.499997
     23          6           0       -3.494136   -0.795661    0.048503
     24          6           0       -4.790011   -0.193344   -0.250360
     25          6           0       -5.836631   -1.009470   -0.692703
     26          6           0       -7.073232   -0.447845   -0.982411
     27          6           0       -7.271535    0.924329   -0.833492
     28          6           0       -6.228784    1.736384   -0.393600
     29          6           0       -4.987416    1.182448   -0.101140
     30          1           0        1.480680    1.368942    2.401908
     31          1           0        2.466442    3.433563    1.464828
     32          1           0        1.896821    4.141451   -0.847648
     33          1           0        0.341734    2.767461   -2.208880
     34          1           0       -0.614264    0.693804   -1.284674
     35          1           0        6.605133    2.407064   -0.946967
     36          1           0        5.867163    3.088533    0.506653
     37          1           0        7.085418    1.818184    0.656973
     38          1           0        2.610999    0.042950   -2.006286
     39          1           0        4.475477    1.676328   -1.966892
     40          1           0        5.565298    0.336537    1.962404
     41          1           0        3.708946   -1.295878    1.924672
     42          1           0        0.512999   -2.292442    1.738825
     43          1           0       -0.394252   -0.170863    2.295126
     44          1           0       -5.672369   -2.075919   -0.806000
     45          1           0       -7.884479   -1.081889   -1.325395
     46          1           0       -8.239351    1.360150   -1.061101
     47          1           0       -6.380702    2.804719   -0.278015
     48          1           0       -4.174019    1.814626    0.239342
 ---------------------------------------------------------------------
                    Distance matrix (angstroms):
                    1          2          3          4          5
     1  C    0.000000
     2  C    1.389154   0.000000
     3  C    2.409086   1.393689   0.000000
     4  C    2.778799   2.409733   1.391121   0.000000
     5  C    2.409271   2.785448   2.413462   1.392657   0.000000
     6  C    5.212754   4.580557   4.919707   5.793122   6.298567
     7  C    3.623365   3.706365   3.683490   3.570095   3.473437
     8  C    4.032932   3.690662   3.671844   3.993205   4.303004
     9  C    4.196840   3.870547   4.264772   4.895580   5.149650
    10  C    3.967542   4.060245   4.800709   5.364654   5.286661
    11  C    3.551615   4.077822   4.817988   5.068994   4.646970
    12  C    3.346703   3.886592   4.278649   4.187452   3.681198
    13  O    4.321261   5.080426   5.017904   4.166852   3.187311
    14  O    5.119247   6.094756   6.526381   6.082691   5.094019
    15  S    3.882428   4.810503   5.133445   4.628543   3.644032
    16  N    3.150694   4.405168   5.022837   4.637085   3.461293
    17  C    2.501467   3.791164   4.312131   3.828509   2.557019
    18  C    1.396361   2.417807   2.792137   2.414363   1.393495
    19  N    5.904130   6.978991   6.997643   5.946095   4.638889
    20  N    4.943733   6.110777   6.286670   5.362695   3.980540
    21  C    3.787837   4.941027   5.162908   4.335976   2.956647
    22  O    4.175436   5.145624   5.196259   4.298499   3.078417
    23  C    5.497894   6.460545   6.408536   5.374631   4.173485
    24  C    6.511987   7.324925   7.134802   6.077230   5.075606
    25  C    7.840428   8.678116   8.449254   7.325331   6.316745
    26  C    8.890955   9.626053   9.314242   8.203075   7.334126
    27  C    8.816275   9.409697   9.044927   8.021146   7.325707
    28  C    7.665158   8.184902   7.837474   6.906090   6.292724
    29  C    6.409278   7.037200   6.778324   5.828665   5.063568
    30  H    1.086704   2.149453   3.394557   3.865450   3.392648
    31  H    2.146635   1.085531   2.155270   3.395547   3.870950
    32  H    3.393423   2.153480   1.085744   2.151469   3.397418
    33  H    3.864363   3.395696   2.152518   1.085577   2.147140
    34  H    3.396575   3.870029   3.392419   2.146197   1.084830
    35  H    5.911784   5.169489   5.233208   6.019086   6.660889
    36  H    4.930607   4.107294   4.504972   5.578350   6.205451
    37  H    5.908196   5.404096   5.899362   6.784220   7.185366
    38  H    4.021722   4.093533   3.740371   3.257481   3.156241
    39  H    4.675519   4.077277   3.722652   4.037913   4.633848
    40  H    4.580148   4.667047   5.564984   6.265264   6.193374
    41  H    3.915500   4.684466   5.580332   5.798015   5.187834
    42  H    4.054216   5.359729   6.015622   5.592176   4.350956
    43  H    2.621825   3.981974   4.743712   4.485373   3.338800
    44  H    8.157629   9.085633   8.904134   7.747700   6.639135
    45  H    9.900689  10.660458  10.336005   9.189886   8.303223
    46  H    9.782788  10.312604   9.902751   8.900978   8.291495
    47  H    7.867413   8.243423   7.857802   7.040482   6.608914
    48  H    5.522497   6.077064   5.852958   5.019578   4.344266
                    6          7          8          9         10
     6  C    0.000000
     7  C    3.806933   0.000000
     8  C    2.523553   1.390455   0.000000
     9  C    1.506320   2.426282   1.395872   0.000000
    10  C    2.524902   2.786430   2.405466   1.400594   0.000000
    11  C    3.804409   2.424769   2.785161   2.426044   1.386566
    12  C    4.288808   1.388333   2.393439   2.783141   2.394903
    13  O    6.658397   2.912661   4.301072   5.195656   5.013456
    14  O    6.709495   3.751604   4.917124   5.235775   4.482282
    15  S    6.061653   2.737625   4.028184   4.556263   4.026014
    16  N    6.608287   3.772482   4.890148   5.176344   4.432070
    17  C    7.002077   4.219864   5.260187   5.667147   5.139614
    18  C    6.044446   3.504378   4.326195   4.835453   4.631499
    19  N   10.262751   6.830665   8.111726   8.854812   8.449777
    20  N    9.092482   5.714323   7.005969   7.655314   7.158290
    21  C    8.302249   5.156051   6.331390   6.936214   6.502684
    22  O    9.002799   5.987846   7.064564   7.731536   7.435887
    23  C   10.173361   6.927609   8.100991   8.851181   8.546610
    24  C   11.282619   8.114838   9.225365  10.026023   9.814265
    25  C   12.508255   9.185505  10.360700  11.209652  10.979675
    26  C   13.606000  10.358850  11.482555  12.359093  12.193392
    27  C   13.596952  10.577330  11.589215  12.446639  12.360487
    28  C   12.483932   9.666530  10.591207  11.397234  11.342754
    29  C   11.270978   8.392213   9.357572  10.133402  10.021057
    30  H    5.365634   4.170770   4.528257   4.386746   3.841389
    31  H    4.224434   4.305892   3.983499   3.824751   4.018431
    32  H    4.857401   4.272535   3.953782   4.511697   5.277904
    33  H    6.346363   4.095999   4.474106   5.536485   6.169995
    34  H    7.136292   3.930230   4.942130   5.917668   6.037759
    35  H    1.093599   4.057030   2.681605   2.160662   3.396213
    36  H    1.096549   4.286979   3.049763   2.148923   3.025910
    37  H    1.093780   4.555140   3.383424   2.160585   2.693686
    38  H    4.680156   1.083606   2.158405   3.411253   3.869900
    39  H    2.726469   2.142234   1.086234   2.151392   3.392431
    40  H    2.725397   3.872807   3.391239   2.154876   1.086380
    41  H    4.675432   3.406103   3.870185   3.410754   2.151982
    42  H    7.448162   4.656954   5.794898   6.014418   5.141931
    43  H    7.380678   5.035374   5.934085   6.134285   5.468384
    44  H   12.672783   9.210662  10.460784  11.311173  11.015350
    45  H   14.557533  11.218464  12.380571  13.282463  13.101691
    46  H   14.544212  11.577193  12.557832  13.428874  13.379191
    47  H   12.641291  10.057944  10.873987  11.650683  11.662117
    48  H   10.421306   7.761920   8.631344   9.347567   9.263752
                   11         12         13         14         15
    11  C    0.000000
    12  C    1.393465   0.000000
    13  O    3.898351   2.620009   0.000000
    14  O    3.158654   2.648885   2.520707   0.000000
    15  S    2.738254   1.773180   1.458208   1.460113   0.000000
    16  N    3.154964   2.691525   2.608030   2.466739   1.676438
    17  C    4.071036   3.497470   3.080897   3.830916   2.746563
    18  C    3.880531   3.223417   3.287165   4.530564   3.176350
    19  N    7.235875   6.324972   4.300220   5.485825   4.850300
    20  N    5.905557   5.059681   3.245673   4.173002   3.546649
    21  C    5.370437   4.579408   3.224996   4.377891   3.414409
    22  O    6.428573   5.617788   4.246999   5.697875   4.639472
    23  C    7.451461   6.555604   4.753149   6.208887   5.328504
    24  C    8.787168   7.870141   6.046730   7.650695   6.728751
    25  C    9.887373   8.925063   6.872099   8.408509   7.633809
    26  C   11.151172  10.179941   8.148568   9.776901   8.957334
    27  C   11.426916  10.490391   8.661132  10.412662   9.450849
    28  C   10.493945   9.613144   8.025218   9.813779   8.739653
    29  C    9.134966   8.268396   6.723144   8.449757   7.374401
    30  H    3.407779   3.583219   4.827780   5.106452   4.087488
    31  H    4.338171   4.455225   6.004939   6.754029   5.578364
    32  H    5.529338   5.057014   5.912436   7.440279   6.071707
    33  H    5.914857   4.917619   4.582687   6.734832   5.297034
    34  H    5.253622   4.124829   2.857319   5.066608   3.680608
    35  H    4.561500   4.808154   6.966826   7.224973   6.555411
    36  H    4.266803   4.759224   7.068615   7.279397   6.494430
    37  H    4.061235   4.807717   7.309835   7.004618   6.553892
    38  H    3.403031   2.146957   2.477287   3.983822   2.868706
    39  H    3.871384   3.376427   4.894751   5.822889   4.879737
    40  H    2.140654   3.379782   5.985396   5.159952   4.878828
    41  H    1.085054   2.156685   4.249996   2.937089   2.874694
    42  H    3.810654   3.488835   3.140290   2.437216   2.214608
    43  H    4.475920   4.209604   4.138310   4.494878   3.603353
    44  H    9.844591   8.870518   6.677910   8.047315   7.433597
    45  H   12.019281  11.025110   8.879730  10.449992   9.720843
    46  H   12.473398  11.533049   9.706248  11.492643  10.521179
    47  H   10.914567  10.078178   8.676562  10.510429   9.360673
    48  H    8.467885   7.669039   6.412404   8.133224   6.963604
                   16         17         18         19         20
    16  N    0.000000
    17  C    1.464848   0.000000
    18  C    2.483099   1.521473   0.000000
    19  N    4.229461   3.623161   4.606449   0.000000
    20  N    2.873897   2.517776   3.693309   1.389302   0.000000
    21  C    2.455837   1.503665   2.546007   2.144160   1.289327
    22  O    3.705221   2.456888   2.987385   2.195715   2.193663
    23  C    4.552882   3.551881   4.248012   1.295521   2.151553
    24  C    5.967343   4.854885   5.334305   2.487845   3.589922
    25  C    6.976582   6.016440   6.614473   2.965647   4.306407
    26  C    8.291207   7.249106   7.720858   4.352426   5.680835
    27  C    8.710750   7.509568   7.766205   5.150632   6.356734
    28  C    7.929626   6.620561   6.715276   4.893519   5.897924
    29  C    6.539176   5.237058   5.400001   3.715586   4.588278
    30  H    3.090646   2.675555   2.151025   6.233608   5.189095
    31  H    5.142387   4.647364   3.399310   7.967636   7.062933
    32  H    6.069837   5.397684   3.877876   7.997988   7.334363
    33  H    5.493894   4.701510   3.394881   6.299239   5.880644
    34  H    3.644872   2.781600   2.155291   3.903840   3.426172
    35  H    7.283325   7.650930   6.617934  10.732612   9.611749
    36  H    6.812417   7.006830   5.929950  10.364571   9.246712
    37  H    7.073654   7.608613   6.791562  10.936864   9.705699
    38  H    4.023469   4.299521   3.573341   6.403437   5.424569
    39  H    5.790536   6.013031   4.930028   8.670061   7.666000
    40  H    5.094397   5.829099   5.407379   9.232732   7.917427
    41  H    2.943320   4.046550   4.214395   7.155396   5.783038
    42  H    1.017305   2.088098   3.387004   4.067866   2.709324
    43  H    2.037591   1.097484   2.120022   4.059523   3.076335
    44  H    6.869070   6.106221   6.875584   2.653664   4.041660
    45  H    9.113545   8.156430   8.698372   5.014796   6.390772
    46  H    9.786844   8.567122   8.771528   6.217824   7.439164
    47  H    8.520884   7.141612   7.058085   5.834713   6.730927
    48  H    6.068888   4.673351   4.636883   3.999034   4.568319
                   21         22         23         24         25
    21  C    0.000000
    22  O    1.349779   0.000000
    23  C    2.118298   1.356260   0.000000
    24  C    3.512469   2.430151   1.459930   0.000000
    25  C    4.575335   3.694697   2.466248   1.398979   0.000000
    26  C    5.857090   4.840780   3.740813   2.411175   1.388717
    27  C    6.258547   5.054730   4.243232   2.783378   2.412125
    28  C    5.533725   4.225226   3.753000   2.411314   2.789796
    29  C    4.149746   2.835042   2.482980   1.397869   2.423967
    30  H    4.098710   4.609745   5.913782   6.985473   8.293160
    31  H    5.890759   6.107943   7.444515   8.291709   9.661082
    32  H    6.221858   6.184603   7.364820   7.991302   9.293130
    33  H    4.969163   4.800142   5.701361   6.239949   7.398390
    34  H    2.629822   2.679921   3.505642   4.392459   5.524914
    35  H    8.855832   9.517264  10.641600  11.708829  12.904838
    36  H    8.335844   8.908889  10.145481  11.176723  12.458365
    37  H    8.963769   9.745467  10.914641  12.078713  13.296488
    38  H    4.947711   5.680087   6.496006   7.610128   8.613682
    39  H    6.972596   7.575421   8.584129   9.606842  10.732037
    40  H    7.253306   8.190302   9.328357  10.602336  11.784112
    41  H    5.344523   6.485645   7.460202   8.841867   9.902056
    42  H    2.665150   3.967854   4.599422   6.040280   6.919259
    43  H    2.088963   2.761182   3.879042   5.079636   6.264972
    44  H    4.610696   4.016447   2.667196   2.152064   1.084958
    45  H    6.719892   5.798913   4.609190   3.394252   2.144580
    46  H    7.337183   6.116544   5.328772   3.868927   3.394684
    47  H    6.212316   4.867207   4.626187   3.394030   3.875050
    48  H    3.841993   2.498417   2.704119   2.156664   3.407126
                   26         27         28         29         30
    26  C    0.000000
    27  C    1.394404   0.000000
    28  C    2.414673   1.392935   0.000000
    29  C    2.790183   2.412501   1.390458   0.000000
    30  H    9.376766   9.341668   8.208881   6.938033   0.000000
    31  H   10.585825  10.315363   9.052134   7.942278   2.472348
    32  H   10.076787   9.716420   8.486222   7.530317   4.291805
    33  H    8.174603   7.953030   6.894205   5.945979   4.951002
    34  H    6.566048   6.676522   5.779603   4.556751   4.293656
    35  H   13.973168  13.956120  12.863338  11.687698   6.209080
    36  H   13.497299  13.383016  12.204536  11.037411   5.078406
    37  H   14.432250  14.461762  13.355837  12.113307   5.887249
    38  H    9.750565   9.990833   9.143863   7.916056   4.740047
    39  H   11.783632  11.825497  10.819429   9.657706   5.305629
    40  H   13.000755  13.150924  12.108291  10.785803   4.235933
    41  H   11.199359  11.537233  10.645538   9.266754   3.506307
    42  H    8.267924   8.807009   8.138201   6.761280   3.844713
    43  H    7.444981   7.634443   6.701388   5.354503   2.428533
    44  H    2.155033   3.399938   3.874704   3.403373   8.562934
    45  H    1.085252   2.154665   3.398857   3.875435  10.373310
    46  H    2.152875   1.085548   2.151625   3.395318  10.318504
    47  H    3.399256   2.153602   1.085254   2.145761   8.428805
    48  H    3.875164   3.396794   2.151465   1.084985   6.070498
                   31         32         33         34         35
    31  H    0.000000
    32  H    2.484577   0.000000
    33  H    4.295837   2.481753   0.000000
    34  H    4.955481   4.287518   2.463360   0.000000
    35  H    4.898900   5.018582   6.399413   7.427584   0.000000
    36  H    3.549936   4.325088   6.165028   7.138100   1.766922
    37  H    4.959538   5.880731   7.388608   8.019934   1.774846
    38  H    4.854461   4.318588   3.551559   3.368480   4.760704
    39  H    4.347505   3.738851   4.282168   5.228407   2.471772
    40  H    4.409315   5.985941   7.112990   6.989860   3.719244
    41  H    4.911505   6.366640   6.703364   5.740112   5.508719
    42  H    6.056249   7.071053   6.419995   4.396583   8.149413
    43  H    4.675987   5.807073   5.427845   3.689312   8.133159
    44  H   10.087185   9.795410   7.848301   5.786615  13.071115
    45  H   11.632550  11.098889   9.125164   7.484034  14.908549
    46  H   11.193452  10.513000   8.771142   7.657411  14.881793
    47  H    9.039076   8.404089   6.994338   6.222629  13.009133
    48  H    6.943954   6.591718   5.224338   4.031218  10.860406
                   36         37         38         39         40
    36  H    0.000000
    37  H    1.766501   0.000000
    38  H    5.117914   5.501349   0.000000
    39  H    3.170100   3.703591   2.479063   0.000000
    40  H    3.127909   2.492026   4.956267   4.292099   0.000000
    41  H    5.088392   4.764978   4.295391   4.956394   2.472296
    42  H    7.690267   7.827155   4.886872   6.721957   5.699758
    43  H    7.282006   7.911089   5.251609   6.729872   5.990359
    44  H   12.710445  13.418847   8.633914  10.881442  11.822400
    45  H   14.486423  15.376541  10.577519  12.680212  13.918263
    46  H   14.298213  15.427577  10.970801  12.750972  14.168899
    47  H   12.276255  13.534542   9.563732  11.044554  12.402351
    48  H   10.125197  11.267180   7.363297   8.927506  10.000399
                   41         42         43         44         45
    41  H    0.000000
    42  H    3.352873   0.000000
    43  H    4.270729   2.373536   0.000000
    44  H    9.801739   6.691920   6.411297   0.000000
    45  H   12.042268   9.020672   8.369088   2.480181   0.000000
    46  H   12.598854   9.888612   8.669132   4.296633   2.481803
    47  H   11.111602   8.807485   7.163290   4.959952   4.296984
    48  H    8.640411   6.409727   4.738676   4.298155   4.960415
                   46         47         48
    46  H    0.000000
    47  H    2.480843   0.000000
    48  H    4.292392   2.473336   0.000000
 Stoichiometry    C22H19N3O3S
 Framework group  C1[X(C22H19N3O3S)]
 Deg. of freedom   138
 Full point group                 C1      NOp   1
 Largest Abelian subgroup         C1      NOp   1
 Largest concise Abelian subgroup C1      NOp   1
                         Standard orientation:                         
 ---------------------------------------------------------------------
 Center     Atomic      Atomic             Coordinates (Angstroms)
 Number     Number       Type             X           Y           Z
 ---------------------------------------------------------------------
      1          6           0       -1.471140   -1.439788    1.446961
      2          6           0       -2.065954   -2.608695    0.989140
      3          6           0       -1.698612   -3.137786   -0.246777
      4          6           0       -0.741533   -2.489211   -1.020448
      5          6           0       -0.155279   -1.310126   -0.567061
      6          6           0       -6.423076   -1.769167   -0.147602
      7          6           0       -3.274666    0.005674   -1.343506
      8          6           0       -4.371467   -0.847400   -1.291965
      9          6           0       -5.268523   -0.804662   -0.223357
     10          6           0       -5.055418    0.131991    0.795922
     11          6           0       -3.967759    0.991248    0.760720
     12          6           0       -3.079198    0.911517   -0.309722
     13          8           0       -0.873941    1.645584   -1.519034
     14          8           0       -2.115366    3.374810   -0.168995
     15         16           0       -1.675825    1.994526   -0.352161
     16          7           0       -0.897161    1.637419    1.088880
     17          6           0        0.053101    0.527993    1.198227
     18          6           0       -0.516404   -0.780324    0.670165
     19          7           0        3.164697    1.890263   -0.062522
     20          7           0        1.819514    2.048899    0.246477
     21          6           0        1.400474    0.895044    0.640670
     22          8           0        2.376801   -0.036971    0.634727
     23          6           0        3.453035    0.650303    0.177763
     24          6           0        4.725919   -0.045282    0.012463
     25          6           0        5.841703    0.669820   -0.435639
     26          6           0        7.057389    0.018707   -0.599025
     27          6           0        7.166119   -1.342748   -0.317989
     28          6           0        6.054567   -2.054233    0.127552
     29          6           0        4.833525   -1.410259    0.294062
     30          1           0       -1.763773   -1.020825    2.406004
     31          1           0       -2.815385   -3.106741    1.596331
     32          1           0       -2.160359   -4.052497   -0.605853
     33          1           0       -0.453793   -2.893865   -1.985817
     34          1           0        0.569401   -0.798549   -1.191548
     35          1           0       -6.745769   -2.085015   -1.143629
     36          1           0       -6.131268   -2.669271    0.406547
     37          1           0       -7.279260   -1.327142    0.370007
     38          1           0       -2.566815   -0.044739   -2.162412
     39          1           0       -4.523335   -1.565566   -2.092637
     40          1           0       -5.749824    0.184156    1.629769
     41          1           0       -3.801553    1.704613    1.561238
     42          1           0       -0.547192    2.507579    1.482902
     43          1           0        0.201424    0.400237    2.278111
     44          1           0        5.746954    1.728705   -0.652247
     45          1           0        7.922339    0.574428   -0.946601
     46          1           0        8.117835   -1.848707   -0.447057
     47          1           0        6.136774   -3.114122    0.345852
     48          1           0        3.966681   -1.964237    0.638856
 ---------------------------------------------------------------------
 Rotational constants (GHZ):           0.3725690           0.0862847           0.0753632
 Electric field and nuclear coordinate derivatives read from checkpoint file.
 Rotating derivatives to standard orientation.
 Full mass-weighted force constant matrix:
 Low frequencies ---   -4.1017   -0.0213   -0.0128    0.0119    3.8626    6.4117
 Low frequencies ---   18.0034   26.2775   27.3954
 Diagonal vibrational polarizability:
       82.3584399      76.3066155     116.9661672
 Harmonic frequencies (cm**-1), IR intensities (KM/Mole), Raman scattering
 activities (A**4/AMU), depolarization ratios for plane and unpolarized
 incident light, reduced masses (AMU), force constants (mDyne/A),
 and normal coordinates:
                      1                      2                      3
                      A                      A                      A
 Frequencies --     17.6825                26.2419                27.1737
 Red. masses --      5.4147                 4.3618                 4.7085
 Frc consts  --      0.0010                 0.0018                 0.0020
 IR Inten    --      0.8122                 0.5142                 0.7561
  Atom  AN      X      Y      Z        X      Y      Z        X      Y      Z
     1   6     0.02  -0.04  -0.09     0.02   0.02  -0.04    -0.01  -0.04  -0.01
     2   6     0.02  -0.03  -0.12     0.04   0.01  -0.04    -0.03  -0.03  -0.00
     3   6     0.00   0.02  -0.15     0.03   0.03  -0.05    -0.05  -0.04  -0.00
     4   6    -0.02   0.05  -0.14     0.01   0.05  -0.06    -0.03  -0.07  -0.01
     5   6    -0.02   0.04  -0.11    -0.01   0.06  -0.06    -0.01  -0.08  -0.02
     6   6    -0.02   0.00   0.12     0.08  -0.10   0.14    -0.16   0.17   0.05
     7   6    -0.07   0.03   0.03    -0.02  -0.00   0.01    -0.05  -0.02   0.03
     8   6    -0.06   0.03   0.06     0.00  -0.03   0.06    -0.10   0.03   0.04
     9   6    -0.02   0.01   0.09     0.04  -0.06   0.09    -0.10   0.10   0.03
    10   6     0.02  -0.01   0.10     0.05  -0.05   0.08    -0.06   0.11   0.02
    11   6     0.01  -0.01   0.08     0.02  -0.01   0.03    -0.02   0.05   0.01
    12   6    -0.03   0.01   0.04    -0.01   0.01   0.00    -0.02  -0.01   0.01
    13   8    -0.07   0.04  -0.03    -0.05   0.03  -0.05    -0.00  -0.10  -0.02
    14   8    -0.02   0.01   0.05    -0.05   0.02  -0.04     0.06  -0.04  -0.03
    15  16    -0.03   0.01   0.01    -0.03   0.03  -0.04     0.02  -0.06  -0.02
    16   7     0.02  -0.01  -0.02    -0.00   0.05  -0.05     0.02  -0.06  -0.02
    17   6     0.01  -0.02  -0.06    -0.01   0.04  -0.05     0.02  -0.07  -0.03
    18   6     0.00  -0.01  -0.09    -0.00   0.04  -0.05     0.00  -0.06  -0.02
    19   7    -0.00  -0.04  -0.12     0.03   0.01  -0.01    -0.00  -0.01  -0.01
    20   7    -0.01  -0.04  -0.14     0.02   0.03  -0.03    -0.01  -0.04  -0.02
    21   6     0.01  -0.02  -0.07    -0.00   0.03  -0.04     0.01  -0.06  -0.04
    22   8     0.02  -0.01  -0.01    -0.02   0.02  -0.03     0.03  -0.04  -0.04
    23   6     0.01  -0.02  -0.04     0.00   0.00  -0.01     0.02  -0.01  -0.02
    24   6     0.03  -0.01   0.03    -0.01  -0.02   0.02     0.04   0.03  -0.00
    25   6     0.01  -0.04  -0.07     0.06  -0.01   0.20     0.05   0.10   0.13
    26   6     0.02  -0.03  -0.00     0.05  -0.03   0.23     0.08   0.14   0.15
    27   6     0.06   0.01   0.17    -0.03  -0.07   0.07     0.10   0.12   0.05
    28   6     0.09   0.04   0.27    -0.09  -0.08  -0.11     0.09   0.06  -0.08
    29   6     0.07   0.03   0.20    -0.08  -0.06  -0.14     0.06   0.01  -0.11
    30   1     0.04  -0.07  -0.07     0.03   0.01  -0.03    -0.00  -0.03  -0.02
    31   1     0.04  -0.05  -0.12     0.06  -0.01  -0.03    -0.04  -0.01   0.00
    32   1     0.00   0.03  -0.17     0.04   0.02  -0.05    -0.06  -0.04   0.00
    33   1    -0.03   0.08  -0.16    -0.00   0.06  -0.06    -0.04  -0.08  -0.01
    34   1    -0.03   0.06  -0.11    -0.03   0.07  -0.06    -0.00  -0.09  -0.02
    35   1    -0.04   0.00   0.13     0.04  -0.11   0.16    -0.09   0.07   0.06
    36   1     0.00   0.00   0.11     0.15  -0.10   0.12    -0.26   0.22   0.18
    37   1    -0.00  -0.00   0.14     0.09  -0.14   0.19    -0.18   0.28  -0.08
    38   1    -0.10   0.05   0.00    -0.05   0.01  -0.01    -0.05  -0.07   0.03
    39   1    -0.09   0.05   0.05    -0.00  -0.04   0.06    -0.13   0.03   0.05
    40   1     0.05  -0.03   0.13     0.08  -0.07   0.10    -0.06   0.16   0.02
    41   1     0.04  -0.03   0.09     0.03  -0.01   0.02     0.02   0.06  -0.01
    42   1     0.03  -0.02  -0.01     0.00   0.05  -0.07     0.03  -0.06  -0.02
    43   1     0.02  -0.05  -0.07    -0.01   0.05  -0.05     0.03  -0.07  -0.03
    44   1    -0.03  -0.07  -0.21     0.12   0.02   0.33     0.04   0.11   0.21
    45   1     0.00  -0.05  -0.08     0.10  -0.02   0.37     0.09   0.20   0.25
    46   1     0.07   0.02   0.23    -0.04  -0.09   0.09     0.12   0.16   0.07
    47   1     0.12   0.07   0.40    -0.15  -0.11  -0.24     0.11   0.04  -0.16
    48   1     0.09   0.05   0.28    -0.13  -0.07  -0.28     0.06  -0.04  -0.20
                      4                      5                      6
                      A                      A                      A
 Frequencies --     41.0864                46.8670                50.7467
 Red. masses --      2.0647                 1.5635                 5.0925
 Frc consts  --      0.0021                 0.0020                 0.0077
 IR Inten    --      0.1764                 0.4331                 0.3218
  Atom  AN      X      Y      Z        X      Y      Z        X      Y      Z
     1   6     0.04  -0.03  -0.03     0.01  -0.02  -0.02     0.14  -0.03   0.07
     2   6     0.08  -0.05  -0.05     0.03  -0.03  -0.03     0.18  -0.07   0.09
     3   6     0.10  -0.02  -0.05     0.05  -0.01  -0.03     0.16  -0.05   0.07
     4   6     0.09   0.02  -0.04     0.05   0.00  -0.02     0.09   0.01   0.03
     5   6     0.05   0.03  -0.02     0.03   0.01  -0.01     0.04   0.04   0.00
     6   6    -0.05   0.05   0.05    -0.03   0.03   0.04    -0.13   0.09  -0.17
     7   6    -0.01  -0.03   0.02    -0.02  -0.02   0.01     0.00  -0.02   0.03
     8   6    -0.02  -0.03   0.03    -0.03  -0.01   0.03    -0.02   0.01  -0.03
     9   6    -0.03   0.02   0.02    -0.03   0.03   0.03    -0.08   0.03  -0.08
    10   6    -0.03   0.04   0.00    -0.02   0.04   0.01    -0.09   0.01  -0.05
    11   6    -0.02   0.03  -0.01    -0.00   0.03  -0.01    -0.06  -0.02   0.01
    12   6    -0.01  -0.01  -0.00    -0.01  -0.00  -0.01    -0.02  -0.03   0.04
    13   8    -0.00  -0.03  -0.01     0.00  -0.05  -0.02    -0.06   0.05   0.04
    14   8    -0.01  -0.01  -0.04     0.02  -0.01  -0.05    -0.09  -0.02   0.10
    15  16    -0.01  -0.01  -0.02     0.00  -0.02  -0.03    -0.05   0.00   0.06
    16   7    -0.01   0.01  -0.01    -0.01   0.00  -0.02     0.00   0.01   0.03
    17   6    -0.01   0.01   0.01    -0.01   0.00   0.00     0.04   0.04   0.00
    18   6     0.02   0.01  -0.01     0.01  -0.00  -0.01     0.07   0.02   0.02
    19   7     0.01   0.03   0.06     0.01   0.02   0.06    -0.00  -0.01  -0.17
    20   7     0.01   0.03   0.06     0.01   0.01   0.06     0.00   0.02  -0.15
    21   6     0.00   0.02   0.04    -0.00   0.01   0.03     0.02   0.05  -0.05
    22   8    -0.00   0.02   0.03    -0.00   0.01   0.02     0.02   0.05   0.00
    23   6     0.00   0.02   0.04     0.00   0.01   0.04     0.01   0.01  -0.08
    24   6    -0.01   0.00   0.02    -0.00   0.01   0.02     0.00  -0.01  -0.04
    25   6    -0.01  -0.02  -0.01    -0.01   0.00  -0.00     0.04  -0.03   0.02
    26   6    -0.03  -0.04  -0.05    -0.02  -0.01  -0.03     0.03  -0.06   0.07
    27   6    -0.04  -0.04  -0.04    -0.02  -0.01  -0.03    -0.02  -0.07   0.06
    28   6    -0.04  -0.02  -0.00    -0.01  -0.00  -0.00    -0.05  -0.04   0.00
    29   6    -0.02   0.00   0.03    -0.00   0.01   0.02    -0.04  -0.01  -0.05
    30   1     0.02  -0.05  -0.02    -0.00  -0.03  -0.02     0.16  -0.05   0.08
    31   1     0.09  -0.08  -0.06     0.04  -0.04  -0.04     0.24  -0.12   0.13
    32   1     0.14  -0.03  -0.06     0.07  -0.02  -0.04     0.20  -0.08   0.10
    33   1     0.11   0.04  -0.04     0.06   0.02  -0.02     0.06   0.03   0.02
    34   1     0.04   0.06  -0.01     0.02   0.03  -0.00    -0.02   0.08  -0.03
    35   1     0.24  -0.34   0.08    -0.38   0.45   0.01    -0.22   0.29  -0.21
    36   1    -0.23   0.26   0.49     0.14  -0.21  -0.44    -0.16  -0.03  -0.35
    37   1    -0.20   0.25  -0.38     0.16  -0.16   0.51    -0.07   0.05  -0.04
    38   1    -0.00  -0.06   0.03    -0.02  -0.04   0.01     0.03  -0.03   0.06
    39   1    -0.02  -0.05   0.05    -0.04  -0.02   0.04    -0.01   0.02  -0.04
    40   1    -0.04   0.07  -0.01    -0.01   0.07   0.01    -0.13   0.03  -0.09
    41   1    -0.02   0.05  -0.03     0.01   0.04  -0.02    -0.09  -0.03   0.02
    42   1    -0.02   0.01  -0.02    -0.01   0.01  -0.03    -0.04   0.01   0.05
    43   1    -0.03   0.01   0.01    -0.03   0.00   0.01     0.08   0.05  -0.00
    44   1    -0.00  -0.02  -0.02    -0.01  -0.00  -0.01     0.08  -0.03   0.03
    45   1    -0.03  -0.06  -0.08    -0.02  -0.01  -0.05     0.06  -0.08   0.12
    46   1    -0.06  -0.06  -0.07    -0.02  -0.01  -0.05    -0.02  -0.09   0.10
    47   1    -0.05  -0.02   0.00    -0.01  -0.00  -0.00    -0.09  -0.05  -0.01
    48   1    -0.02   0.02   0.06    -0.00   0.01   0.04    -0.07   0.00  -0.09
                      7                      8                      9
                      A                      A                      A
 Frequencies --     57.6030                76.3748                80.3238
 Red. masses --      4.2886                 4.6957                 7.1171
 Frc consts  --      0.0084                 0.0161                 0.0271
 IR Inten    --      0.1664                 0.8477                 3.3479
  Atom  AN      X      Y      Z        X      Y      Z        X      Y      Z
     1   6    -0.06  -0.02  -0.06    -0.12   0.14  -0.10     0.06   0.06   0.01
     2   6    -0.02  -0.04  -0.05    -0.17   0.19  -0.15    -0.03   0.09   0.05
     3   6     0.05  -0.07  -0.02    -0.04   0.11  -0.08    -0.13   0.08   0.03
     4   6     0.07  -0.08   0.01     0.13  -0.00   0.04    -0.15   0.03  -0.03
     5   6     0.03  -0.06  -0.00     0.17  -0.04   0.08    -0.06  -0.00  -0.07
     6   6     0.10  -0.06   0.06    -0.07   0.00  -0.03    -0.06  -0.04  -0.03
     7   6     0.10  -0.06   0.09     0.00  -0.07   0.04     0.02  -0.12   0.07
     8   6     0.14  -0.10   0.11    -0.01  -0.05   0.03     0.03  -0.13   0.06
     9   6     0.04   0.00   0.02    -0.04  -0.03   0.00    -0.05  -0.05  -0.01
    10   6    -0.10   0.16  -0.09    -0.04  -0.03   0.01    -0.13   0.03  -0.07
    11   6    -0.13   0.20  -0.11    -0.03  -0.05   0.03    -0.12   0.03  -0.05
    12   6    -0.02   0.08  -0.01    -0.01  -0.06   0.04    -0.05  -0.05   0.02
    13   8     0.00   0.07   0.03    -0.02  -0.05   0.03    -0.10   0.05  -0.03
    14   8     0.04   0.05   0.09    -0.05  -0.05   0.02    -0.12  -0.04   0.08
    15  16     0.00   0.05   0.03    -0.02  -0.05   0.03    -0.07  -0.01   0.01
    16   7    -0.02  -0.03   0.03     0.02  -0.00   0.02     0.04  -0.01  -0.04
    17   6    -0.02  -0.04  -0.02     0.04   0.03   0.03     0.07   0.02  -0.09
    18   6    -0.03  -0.03  -0.03     0.04   0.03   0.01     0.04   0.02  -0.05
    19   7    -0.04  -0.03  -0.05     0.01   0.00  -0.10     0.17   0.09   0.23
    20   7    -0.04  -0.03  -0.05     0.01   0.01  -0.09     0.15   0.09   0.17
    21   6    -0.03  -0.03  -0.02     0.04   0.04   0.02     0.07   0.03  -0.08
    22   8    -0.02  -0.02  -0.01     0.06   0.06   0.11     0.03  -0.01  -0.20
    23   6    -0.03  -0.02  -0.03     0.04   0.03   0.02     0.10   0.03   0.01
    24   6    -0.02  -0.01  -0.02     0.04   0.02   0.02     0.08   0.00  -0.01
    25   6    -0.02   0.00  -0.00     0.05  -0.00   0.02     0.10  -0.03  -0.04
    26   6    -0.01   0.02   0.02     0.03  -0.03  -0.01     0.08  -0.06  -0.03
    27   6     0.00   0.02   0.02    -0.00  -0.04  -0.04     0.06  -0.05   0.01
    28   6     0.00   0.01  -0.00    -0.02  -0.02  -0.04     0.05  -0.02   0.04
    29   6    -0.01  -0.01  -0.02     0.00   0.01  -0.00     0.07   0.01   0.03
    30   1    -0.11   0.01  -0.08    -0.23   0.21  -0.16     0.13   0.08   0.03
    31   1    -0.04  -0.03  -0.07    -0.31   0.29  -0.25    -0.01   0.13   0.10
    32   1     0.08  -0.09  -0.01    -0.08   0.15  -0.12    -0.21   0.10   0.05
    33   1     0.12  -0.11   0.03     0.23  -0.06   0.09    -0.23   0.01  -0.05
    34   1     0.06  -0.07   0.02     0.30  -0.13   0.16    -0.07  -0.04  -0.11
    35   1     0.07  -0.06   0.07    -0.07   0.04  -0.04    -0.06  -0.01  -0.04
    36   1     0.18  -0.06   0.02    -0.10  -0.02  -0.05    -0.07  -0.06  -0.06
    37   1     0.10  -0.12   0.11    -0.06   0.01  -0.02    -0.06  -0.05  -0.03
    38   1     0.17  -0.14   0.15     0.02  -0.08   0.06     0.07  -0.17   0.11
    39   1     0.24  -0.22   0.19    -0.01  -0.05   0.03     0.09  -0.19   0.10
    40   1    -0.18   0.25  -0.17    -0.06  -0.02  -0.01    -0.19   0.10  -0.13
    41   1    -0.23   0.32  -0.19    -0.04  -0.04   0.02    -0.19   0.10  -0.10
    42   1    -0.01  -0.05   0.07    -0.02   0.02   0.02     0.02   0.00  -0.04
    43   1    -0.01  -0.06  -0.02     0.04   0.02   0.03     0.09   0.02  -0.09
    44   1    -0.03   0.00   0.00     0.07   0.00   0.04     0.12  -0.04  -0.08
    45   1    -0.01   0.03   0.03     0.04  -0.05  -0.01     0.09  -0.09  -0.05
    46   1     0.01   0.03   0.03    -0.02  -0.07  -0.07     0.05  -0.07   0.03
    47   1     0.01   0.01  -0.00    -0.04  -0.03  -0.06     0.04  -0.01   0.08
    48   1    -0.01  -0.02  -0.03    -0.01   0.02  -0.01     0.06   0.03   0.06
                     10                     11                     12
                      A                      A                      A
 Frequencies --     91.5085               100.3382               121.8730
 Red. masses --      5.0856                 6.6720                 5.6730
 Frc consts  --      0.0251                 0.0396                 0.0496
 IR Inten    --      1.1307                 0.2784                 0.1379
  Atom  AN      X      Y      Z        X      Y      Z        X      Y      Z
     1   6     0.08  -0.05   0.09    -0.05   0.05  -0.03     0.06  -0.05   0.00
     2   6     0.04  -0.00   0.02     0.02  -0.01   0.04    -0.00  -0.04   0.05
     3   6    -0.09   0.14  -0.07     0.10  -0.10   0.10    -0.09  -0.05   0.03
     4   6    -0.15   0.21  -0.09     0.09  -0.10   0.08    -0.11  -0.09  -0.02
     5   6    -0.09   0.15  -0.02     0.01  -0.04   0.01    -0.04  -0.10  -0.06
     6   6    -0.00  -0.02  -0.01    -0.01  -0.02  -0.01     0.05  -0.05   0.04
     7   6     0.05  -0.09   0.03    -0.07   0.07  -0.04    -0.04   0.06  -0.04
     8   6     0.05  -0.09   0.04    -0.06   0.06  -0.04    -0.03   0.05  -0.03
     9   6    -0.00  -0.02  -0.01    -0.02   0.00  -0.01    -0.01   0.01  -0.01
    10   6    -0.06   0.05  -0.06    -0.01  -0.03   0.02    -0.02   0.02  -0.02
    11   6    -0.05   0.04  -0.06    -0.03  -0.01   0.01    -0.03   0.04  -0.02
    12   6     0.01  -0.03  -0.01    -0.06   0.04  -0.02    -0.03   0.04  -0.03
    13   8     0.01  -0.03  -0.01    -0.14   0.16  -0.10    -0.00  -0.02  -0.00
    14   8    -0.01  -0.03  -0.04    -0.12   0.06   0.05     0.08  -0.00   0.07
    15  16     0.00  -0.02  -0.01    -0.08   0.08  -0.04     0.02  -0.02   0.01
    16   7     0.01   0.03   0.00     0.01   0.06  -0.10     0.00  -0.10  -0.01
    17   6     0.00   0.02   0.08    -0.04   0.03  -0.06     0.04  -0.07  -0.07
    18   6     0.01   0.03   0.06    -0.05   0.03  -0.04     0.03  -0.08  -0.05
    19   7    -0.02  -0.09  -0.10     0.07  -0.11   0.06    -0.01   0.10  -0.02
    20   7    -0.01  -0.07  -0.09     0.05  -0.08  -0.04    -0.05   0.01  -0.14
    21   6     0.02  -0.02   0.08     0.01  -0.05  -0.00     0.02   0.01  -0.07
    22   8     0.03  -0.01   0.20     0.01  -0.06   0.13     0.09   0.10   0.09
    23   6     0.01  -0.05   0.07     0.05  -0.10   0.15     0.07   0.15   0.11
    24   6     0.02  -0.03   0.07     0.06  -0.07   0.14     0.07   0.14   0.16
    25   6    -0.01   0.01   0.05     0.00  -0.01   0.09     0.11   0.05   0.11
    26   6    -0.00   0.05  -0.03     0.01   0.05  -0.07     0.02  -0.08  -0.04
    27   6     0.04   0.03  -0.09     0.09   0.04  -0.17    -0.10  -0.11  -0.13
    28   6     0.07  -0.01  -0.07     0.16  -0.02  -0.09    -0.12  -0.00  -0.03
    29   6     0.06  -0.04   0.01     0.15  -0.08   0.07    -0.03   0.12   0.12
    30   1     0.17  -0.15   0.16    -0.10   0.10  -0.07     0.12  -0.04   0.02
    31   1     0.10  -0.07   0.04     0.02  -0.00   0.05     0.02  -0.01   0.10
    32   1    -0.14   0.19  -0.13     0.17  -0.16   0.16    -0.14  -0.04   0.06
    33   1    -0.25   0.31  -0.17     0.15  -0.17   0.12    -0.18  -0.10  -0.04
    34   1    -0.15   0.22  -0.03     0.02  -0.05   0.00    -0.05  -0.13  -0.10
    35   1    -0.01  -0.02  -0.01     0.01  -0.03  -0.01     0.05  -0.10   0.05
    36   1     0.01  -0.03  -0.02     0.00  -0.00   0.01     0.12  -0.02   0.06
    37   1     0.00  -0.03   0.00    -0.02  -0.03  -0.02     0.03  -0.09   0.04
    38   1     0.07  -0.13   0.06    -0.09   0.11  -0.06    -0.05   0.07  -0.05
    39   1     0.09  -0.14   0.08    -0.07   0.08  -0.06    -0.03   0.05  -0.04
    40   1    -0.10   0.11  -0.10     0.02  -0.07   0.04    -0.00   0.01  -0.01
    41   1    -0.09   0.09  -0.10    -0.02  -0.03   0.03    -0.03   0.03  -0.02
    42   1    -0.00   0.04  -0.03     0.01   0.05  -0.09    -0.03  -0.12   0.06
    43   1    -0.04   0.05   0.08    -0.08   0.04  -0.05     0.08  -0.09  -0.08
    44   1    -0.05   0.02   0.10    -0.06  -0.00   0.15     0.20   0.07   0.14
    45   1    -0.03   0.08  -0.04    -0.04   0.11  -0.12     0.05  -0.16  -0.10
    46   1     0.04   0.06  -0.16     0.09   0.07  -0.31    -0.17  -0.21  -0.28
    47   1     0.11  -0.01  -0.12     0.22  -0.03  -0.16    -0.21  -0.02  -0.08
    48   1     0.09  -0.08   0.02     0.20  -0.14   0.11    -0.06   0.20   0.17
                     13                     14                     15
                      A                      A                      A
 Frequencies --    137.9631               172.3795               199.3205
 Red. masses --      5.0885                 5.9263                 7.0066
 Frc consts  --      0.0571                 0.1038                 0.1640
 IR Inten    --      2.5716                 1.1129                 4.2704
  Atom  AN      X      Y      Z        X      Y      Z        X      Y      Z
     1   6    -0.04  -0.01  -0.03     0.04  -0.05   0.06     0.00   0.10  -0.06
     2   6    -0.03  -0.03  -0.01    -0.02   0.00   0.00     0.04   0.06   0.01
     3   6    -0.04  -0.05  -0.00    -0.04   0.05  -0.02     0.05  -0.00   0.04
     4   6    -0.05  -0.05  -0.02     0.02   0.01   0.03    -0.00   0.00  -0.01
     5   6    -0.06  -0.03  -0.04     0.08  -0.04   0.08    -0.03   0.04  -0.09
     6   6    -0.10   0.21  -0.05    -0.00   0.03   0.20    -0.00   0.01   0.14
     7   6     0.16  -0.15   0.07    -0.05  -0.05  -0.16    -0.02  -0.05  -0.08
     8   6     0.14  -0.13   0.10    -0.10   0.00  -0.08    -0.06   0.00  -0.06
     9   6     0.08  -0.01   0.05    -0.02   0.04  -0.01    -0.02   0.03  -0.02
    10   6     0.13  -0.03   0.05     0.05   0.07  -0.06     0.02   0.04  -0.04
    11   6     0.16  -0.07   0.04     0.08   0.02  -0.15     0.05  -0.01  -0.08
    12   6     0.13  -0.09   0.02     0.04  -0.06  -0.17     0.04  -0.07  -0.07
    13   8     0.03   0.16  -0.06     0.04   0.23  -0.08     0.26  -0.02   0.23
    14   8    -0.10  -0.01   0.03    -0.14  -0.09   0.18    -0.14  -0.09  -0.00
    15  16     0.02   0.03  -0.02    -0.00  -0.02  -0.04     0.02  -0.04   0.07
    16   7     0.04   0.04  -0.03    -0.03  -0.09  -0.04    -0.09  -0.02   0.13
    17   6    -0.03  -0.02  -0.04     0.02  -0.04   0.07     0.00   0.06  -0.07
    18   6    -0.05  -0.01  -0.05     0.07  -0.06   0.09    -0.01   0.07  -0.09
    19   7    -0.04   0.02   0.01    -0.03   0.01  -0.02     0.07  -0.03  -0.00
    20   7    -0.05  -0.02  -0.03    -0.01  -0.01   0.06     0.05   0.05  -0.11
    21   6    -0.03  -0.02  -0.03     0.03  -0.01   0.10    -0.05   0.08  -0.16
    22   8    -0.01   0.00   0.01     0.04   0.01   0.06    -0.11   0.00  -0.12
    23   6    -0.02   0.03   0.04     0.00   0.01  -0.02    -0.03  -0.05   0.01
    24   6    -0.02   0.04   0.06    -0.01   0.01  -0.07    -0.03  -0.07   0.12
    25   6    -0.02   0.03   0.04     0.01  -0.01  -0.06    -0.07  -0.01   0.12
    26   6    -0.04   0.01  -0.01     0.02  -0.01   0.01    -0.06   0.04  -0.00
    27   6    -0.06  -0.00  -0.04     0.01  -0.00   0.06    -0.01   0.03  -0.10
    28   6    -0.05   0.01  -0.00    -0.02   0.00   0.01     0.05  -0.02  -0.01
    29   6    -0.03   0.04   0.05    -0.02   0.01  -0.06     0.04  -0.06   0.11
    30   1    -0.04  -0.01  -0.04     0.05  -0.07   0.07     0.01   0.15  -0.08
    31   1    -0.03  -0.02   0.01    -0.05   0.02  -0.03     0.06   0.07   0.05
    32   1    -0.03  -0.06   0.02    -0.10   0.10  -0.08     0.09  -0.05   0.11
    33   1    -0.05  -0.06  -0.01     0.01   0.04   0.01    -0.01  -0.04  -0.00
    34   1    -0.07  -0.04  -0.05     0.11  -0.05   0.11    -0.06   0.04  -0.12
    35   1    -0.13   0.35  -0.09    -0.15  -0.04   0.28    -0.11  -0.04   0.19
    36   1    -0.31   0.10  -0.11     0.10   0.07   0.22     0.08   0.05   0.15
    37   1    -0.03   0.35  -0.06     0.08   0.05   0.31     0.05   0.03   0.21
    38   1     0.16  -0.18   0.08    -0.09  -0.09  -0.20    -0.03  -0.08  -0.09
    39   1     0.13  -0.15   0.12    -0.19  -0.01  -0.06    -0.12   0.00  -0.05
    40   1     0.12   0.03   0.04     0.10   0.12  -0.03     0.04   0.08  -0.03
    41   1     0.18  -0.05   0.02     0.15   0.04  -0.18     0.09  -0.01  -0.09
    42   1     0.13   0.02  -0.08    -0.16  -0.09   0.06    -0.18  -0.02   0.22
    43   1    -0.03  -0.04  -0.05    -0.03   0.03   0.08     0.14  -0.03  -0.10
    44   1    -0.01   0.03   0.06     0.02  -0.01  -0.08    -0.13  -0.01   0.16
    45   1    -0.04  -0.01  -0.03     0.03  -0.02   0.04    -0.10   0.09  -0.04
    46   1    -0.08  -0.02  -0.09     0.02  -0.00   0.14    -0.01   0.05  -0.23
    47   1    -0.07   0.01  -0.02    -0.03   0.01   0.04     0.11  -0.02  -0.06
    48   1    -0.04   0.05   0.06    -0.04   0.02  -0.08     0.08  -0.10   0.14
                     16                     17                     18
                      A                      A                      A
 Frequencies --    225.6527               236.9701               254.8421
 Red. masses --      5.5069                 5.5484                 4.9261
 Frc consts  --      0.1652                 0.1836                 0.1885
 IR Inten    --      3.1283                 1.9342                14.0058
  Atom  AN      X      Y      Z        X      Y      Z        X      Y      Z
     1   6     0.20  -0.03   0.06     0.08   0.09  -0.12    -0.06  -0.02   0.02
     2   6     0.04   0.07   0.01     0.04   0.07   0.05    -0.02  -0.03  -0.01
     3   6    -0.09   0.12  -0.05    -0.04  -0.05   0.08     0.02  -0.01  -0.01
     4   6     0.04  -0.01   0.01    -0.09  -0.11  -0.04     0.00   0.04   0.01
     5   6     0.19  -0.10   0.05    -0.02  -0.07  -0.19    -0.04   0.04   0.05
     6   6    -0.02   0.03  -0.04    -0.04   0.01  -0.01    -0.16   0.04   0.01
     7   6     0.00   0.01   0.01    -0.01  -0.01  -0.00    -0.07  -0.02  -0.07
     8   6     0.03  -0.03   0.03     0.01  -0.04   0.02     0.01  -0.15   0.05
     9   6     0.03  -0.03   0.02     0.01  -0.03   0.02     0.02  -0.15   0.06
    10   6     0.03  -0.04   0.03     0.01  -0.03   0.02     0.06  -0.15   0.04
    11   6    -0.00   0.00   0.01    -0.01  -0.01  -0.01    -0.04  -0.02  -0.08
    12   6    -0.04   0.05  -0.02    -0.02   0.02  -0.02    -0.11   0.10  -0.15
    13   8    -0.08   0.01  -0.08     0.04  -0.02   0.04     0.08   0.03   0.07
    14   8     0.14   0.05   0.07     0.05   0.02   0.02     0.16   0.12   0.02
    15  16    -0.01   0.01  -0.03     0.00   0.01   0.01    -0.02   0.07  -0.01
    16   7    -0.04  -0.09  -0.04    -0.03  -0.04   0.00    -0.15  -0.07   0.04
    17   6     0.05   0.00  -0.04     0.01   0.00  -0.06    -0.05   0.02   0.02
    18   6     0.19  -0.07   0.04     0.06   0.02  -0.20    -0.05   0.00   0.06
    19   7     0.04  -0.03   0.02     0.04  -0.01  -0.01     0.01   0.02  -0.01
    20   7     0.03   0.04  -0.04     0.05   0.06   0.03     0.00   0.02  -0.01
    21   6    -0.03   0.05  -0.09     0.04   0.10   0.14    -0.02   0.03  -0.01
    22   8    -0.10  -0.01  -0.09     0.03   0.09   0.26    -0.00   0.02  -0.02
    23   6    -0.06  -0.06   0.01     0.01   0.00   0.08     0.02   0.01  -0.02
    24   6    -0.09  -0.08   0.08    -0.06  -0.06  -0.08     0.05   0.01  -0.01
    25   6    -0.15   0.00   0.09    -0.10  -0.04  -0.12     0.09  -0.02  -0.01
    26   6    -0.13   0.08   0.02    -0.05   0.03  -0.00     0.09  -0.05  -0.01
    27   6    -0.07   0.07  -0.04     0.02   0.06   0.12     0.08  -0.05  -0.02
    28   6    -0.01  -0.00   0.01     0.00  -0.01  -0.01     0.06  -0.02  -0.01
    29   6    -0.04  -0.08   0.08    -0.05  -0.07  -0.12     0.07   0.01  -0.01
    30   1     0.27  -0.04   0.09     0.15   0.19  -0.14    -0.10  -0.04   0.02
    31   1    -0.02   0.13   0.00     0.07   0.14   0.15    -0.02  -0.06  -0.03
    32   1    -0.27   0.24  -0.12    -0.05  -0.09   0.19     0.06  -0.02  -0.03
    33   1    -0.01  -0.02  -0.01    -0.16  -0.21  -0.02     0.02   0.07   0.01
    34   1     0.25  -0.17   0.06    -0.04  -0.14  -0.27    -0.05   0.08   0.07
    35   1    -0.01   0.08  -0.06    -0.04   0.05  -0.02    -0.22   0.17  -0.01
    36   1    -0.11  -0.01  -0.06    -0.10  -0.01  -0.02    -0.39  -0.05  -0.02
    37   1    -0.02   0.07  -0.06    -0.02   0.05  -0.01    -0.07   0.23   0.00
    38   1     0.00   0.02   0.01    -0.02  -0.01  -0.01    -0.10  -0.02  -0.10
    39   1     0.05  -0.04   0.04     0.02  -0.05   0.03     0.04  -0.19   0.07
    40   1     0.04  -0.06   0.05     0.03  -0.04   0.03     0.12  -0.18   0.09
    41   1    -0.01   0.00   0.01    -0.01  -0.01  -0.01    -0.06  -0.01  -0.09
    42   1    -0.14  -0.09   0.07    -0.13  -0.06   0.12    -0.34  -0.08   0.23
    43   1     0.10   0.07  -0.03    -0.08  -0.14  -0.06    -0.02   0.05   0.02
    44   1    -0.24   0.00   0.13    -0.15  -0.05  -0.15     0.13  -0.02  -0.02
    45   1    -0.17   0.13  -0.00    -0.06   0.06   0.03     0.09  -0.06  -0.01
    46   1    -0.06   0.12  -0.12     0.07   0.12   0.28     0.07  -0.07  -0.02
    47   1     0.07  -0.00  -0.02     0.05   0.00   0.01     0.03  -0.02  -0.00
    48   1    -0.00  -0.12   0.10    -0.05  -0.11  -0.18     0.07   0.01  -0.01
                     19                     20                     21
                      A                      A                      A
 Frequencies --    261.3493               307.3449               321.6878
 Red. masses --      7.1298                 7.0653                 6.0587
[...]
                              686.78   724.05   734.09   743.70   788.52
                              832.21   852.99   911.79   913.67   939.08
                              944.55   989.44   994.47  1024.51  1029.80
                             1034.96  1044.76  1054.54  1129.84  1155.18
                             1163.28  1196.62  1209.90  1241.16  1251.01
                             1254.68  1263.71  1334.43  1383.03  1389.78
                             1417.60  1434.54  1435.42  1446.54  1451.37
                             1472.98  1477.77  1479.15  1485.09  1488.57
                             1496.30  1503.97  1531.08  1542.28  1553.86
                             1575.45  1611.78  1617.61  1619.21  1634.84
                             1668.47  1675.04  1693.98  1727.28  1728.48
                             1757.35  1768.16  1774.64  1784.77  1808.64
                             1865.24  1895.18  1932.44  1940.89  1951.30
                             1959.62  1968.39  1976.48  1982.59  1995.78
                             2068.26  2080.31  2105.80  2108.16  2173.71
                             2182.31  2184.53  2186.07  2237.84  2250.10
                             2253.02  2359.54  2379.76  2400.81  2416.68
                             2418.72  2437.66  2444.86  2448.63  4415.07
                             4419.36  4517.51  4554.14  4623.71  4632.73
                             4633.88  4635.81  4635.97  4647.93  4648.93
                             4659.69  4661.39  4667.42  4670.63  4672.24
                             4676.61  4698.73  5161.72
 
 Zero-point correction=                           0.378434 (Hartree/Particle)
 Thermal correction to Energy=                    0.397899
 Thermal correction to Enthalpy=                  0.398732
 Thermal correction to Gibbs Free Energy=         0.330337
 Sum of electronic and zero-point Energies=          -1637.042220
 Sum of electronic and thermal Energies=             -1637.022755
 Sum of electronic and thermal Enthalpies=           -1637.021922
 Sum of electronic and thermal Free Energies=        -1637.090317
 
                     E (Thermal)             CV                S
                      KCal/Mol        Cal/Mol-Kelvin    Cal/Mol-Kelvin
 Total                  249.685             83.470            163.096
 Electronic               0.000              0.000              0.000
 Translational            0.784              2.981             43.268
 Rotational               0.784              2.981             35.766
 Vibrational            248.116             77.509             84.063
 Vibration     1          0.523              1.986              6.631
 Vibration     2          0.524              1.984              5.847
 Vibration     3          0.524              1.984              5.778
 Vibration     4          0.525              1.979              4.959
 Vibration     5          0.526              1.976              4.698
 Vibration     6          0.526              1.975              4.541
 Vibration     7          0.527              1.971              4.291
 Vibration     8          0.531              1.959              3.737
 Vibration     9          0.531              1.956              3.638
 Vibration    10          0.534              1.946              3.384
 Vibration    11          0.536              1.938              3.205
 Vibration    12          0.542              1.915              2.830
 Vibration    13          0.547              1.896              2.594
 Vibration    14          0.561              1.846              2.177
 Vibration    15          0.574              1.802              1.912
 Vibration    16          0.588              1.753              1.691
 Vibration    17          0.594              1.731              1.606
 Vibration    18          0.605              1.695              1.481
 Vibration    19          0.609              1.681              1.439
 Vibration    20          0.641              1.579              1.174
 Vibration    21          0.651              1.545              1.103
 Vibration    22          0.666              1.501              1.017
 Vibration    23          0.669              1.492              1.001
 Vibration    24          0.686              1.442              0.915
 Vibration    25          0.718              1.350              0.781
 Vibration    26          0.730              1.318              0.739
 Vibration    27          0.733              1.308              0.727
 Vibration    28          0.737              1.296              0.712
 Vibration    29          0.740              1.289              0.703
 Vibration    30          0.778              1.191              0.594
 Vibration    31          0.791              1.160              0.564
 Vibration    32          0.818              1.096              0.504
 Vibration    33          0.825              1.079              0.489
 Vibration    34          0.832              1.062              0.475
                       Q            Log10(Q)             Ln(Q)
 Total Bot       0.702604-172       -172.153290       -396.397598
 Total V=0       0.116379D+26         25.065874         57.716309
 Vib (Bot)       0.204879-187       -187.688503       -432.168748
 Vib (Bot)    1  0.103395D+02          1.014498          2.335967
 Vib (Bot)    2  0.696372D+01          0.842841          1.940714
 Vib (Bot)    3  0.672453D+01          0.827662          1.905762
 Vib (Bot)    4  0.444221D+01          0.647599          1.491152
 Vib (Bot)    5  0.389184D+01          0.590155          1.358883
 Vib (Bot)    6  0.359261D+01          0.555410          1.278878
 Vib (Bot)    7  0.316207D+01          0.499971          1.151226
 Vib (Bot)    8  0.237744D+01          0.376109          0.866022
 Vib (Bot)    9  0.225882D+01          0.353881          0.814841
 Vib (Bot)   10  0.197801D+01          0.296228          0.682090
 Vib (Bot)   11  0.180016D+01          0.255311          0.587876
 Vib (Bot)   12  0.147332D+01          0.168297          0.387519
 Vib (Bot)   13  0.129479D+01          0.112199          0.258348
 Vib (Bot)   14  0.102275D+01          0.009768          0.022491
 Vib (Bot)   15  0.873727D+00         -0.058624         -0.134988
 Vib (Bot)   16  0.761318D+00         -0.118434         -0.272704
 Vib (Bot)   17  0.720367D+00         -0.142446         -0.327995
 Vib (Bot)   18  0.662764D+00         -0.178641         -0.411336
 Vib (Bot)   19  0.643649D+00         -0.191351         -0.440602
 Vib (Bot)   20  0.530441D+00         -0.275363         -0.634047
 Vib (Bot)   21  0.501387D+00         -0.299827         -0.690378
 Vib (Bot)   22  0.467126D+00         -0.330566         -0.761156
 Vib (Bot)   23  0.460573D+00         -0.336701         -0.775284
 Vib (Bot)   24  0.427141D+00         -0.369429         -0.850641
 Vib (Bot)   25  0.375469D+00         -0.425426         -0.979579
 Vib (Bot)   26  0.359450D+00         -0.444361         -1.023179
 Vib (Bot)   27  0.354799D+00         -0.450018         -1.036205
 Vib (Bot)   28  0.349342D+00         -0.456750         -1.051705
 Vib (Bot)   29  0.345922D+00         -0.461022         -1.061543
 Vib (Bot)   30  0.304489D+00         -0.516429         -1.189121
 Vib (Bot)   31  0.292722D+00         -0.533545         -1.228532
 Vib (Bot)   32  0.269883D+00         -0.568825         -1.309768
 Vib (Bot)   33  0.264106D+00         -0.578221         -1.331404
 Vib (Bot)   34  0.258718D+00         -0.587173         -1.352015
 Vib (V=0)       0.339360D+10          9.530661         21.945159
 Vib (V=0)    1  0.108515D+02          1.035491          2.384307
 Vib (V=0)    2  0.748165D+01          0.873997          2.012453
 Vib (V=0)    3  0.724310D+01          0.859924          1.980049
 Vib (V=0)    4  0.497026D+01          0.696379          1.603472
 Vib (V=0)    5  0.442383D+01          0.645798          1.487006
 Vib (V=0)    6  0.412723D+01          0.615659          1.417607
 Vib (V=0)    7  0.370135D+01          0.568361          1.308699
 Vib (V=0)    8  0.292944D+01          0.466785          1.074813
 Vib (V=0)    9  0.281349D+01          0.449246          1.034427
 Vib (V=0)   10  0.254022D+01          0.404872          0.932252
 Vib (V=0)   11  0.236831D+01          0.374438          0.862176
 Vib (V=0)   12  0.205585D+01          0.312992          0.720690
 Vib (V=0)   13  0.188798D+01          0.275997          0.635506
 Vib (V=0)   14  0.163842D+01          0.214426          0.493735
 Vib (V=0)   15  0.150668D+01          0.178020          0.409907
 Vib (V=0)   16  0.141083D+01          0.149474          0.344176
 Vib (V=0)   17  0.137689D+01          0.138898          0.319824
 Vib (V=0)   18  0.133021D+01          0.123922          0.285340
 Vib (V=0)   19  0.131504D+01          0.118938          0.273864
 Vib (V=0)   20  0.122895D+01          0.089534          0.206160
 Vib (V=0)   21  0.120809D+01          0.082099          0.189039
 Vib (V=0)   22  0.118426D+01          0.073446          0.169115
 Vib (V=0)   23  0.117980D+01          0.071808          0.165345
 Vib (V=0)   24  0.115761D+01          0.063562          0.146357
 Vib (V=0)   25  0.112528D+01          0.051261          0.118033
 Vib (V=0)   26  0.111580D+01          0.047585          0.109568
 Vib (V=0)   27  0.111309D+01          0.046531          0.107142
 Vib (V=0)   28  0.110995D+01          0.045304          0.104315
 Vib (V=0)   29  0.110800D+01          0.044539          0.102555
 Vib (V=0)   30  0.108542D+01          0.035597          0.081965
 Vib (V=0)   31  0.107938D+01          0.033176          0.076391
 Vib (V=0)   32  0.106819D+01          0.028647          0.065963
 Vib (V=0)   33  0.106547D+01          0.027540          0.063413
 Vib (V=0)   34  0.106297D+01          0.026521          0.061067
 Electronic      0.100000D+01          0.000000          0.000000
 Translational   0.234554D+09          8.370242         19.273195
 Rotational      0.146208D+08          7.164971         16.497955
 ***** Axes restored to original set *****
 -------------------------------------------------------------------
 Center     Atomic                   Forces (Hartrees/Bohr)
 Number     Number              X              Y              Z
 -------------------------------------------------------------------
      1        6          -0.000007891   -0.000009033    0.000001260
      2        6          -0.000002242    0.000012278   -0.000006276
      3        6           0.000001858    0.000003720    0.000004473
      4        6          -0.000004753   -0.000008748   -0.000003131
      5        6           0.000004290   -0.000001395   -0.000006099
      6        6          -0.000000319    0.000004153   -0.000001275
      7        6          -0.000010441    0.000002997    0.000005110
      8        6           0.000011914   -0.000005009   -0.000002991
      9        6          -0.000005065    0.000005407   -0.000010998
     10        6          -0.000002613   -0.000001779    0.000003330
     11        6          -0.000001468    0.000005591    0.000003522
     12        6           0.000010593   -0.000002113   -0.000005413
     13        8           0.000016035    0.000007601    0.000004460
     14        8           0.000007623   -0.000002314   -0.000005327
     15       16          -0.000021835   -0.000014665   -0.000005728
     16        7          -0.000002954    0.000028219    0.000029343
     17        6          -0.000027336    0.000004300    0.000012486
     18        6           0.000015705   -0.000004232    0.000002023
     19        7          -0.000005325    0.000006228    0.000000264
     20        7          -0.000001126   -0.000004126    0.000008521
     21        6           0.000005862    0.000014847   -0.000018020
     22        8           0.000031357   -0.000010338    0.000016055
     23        6          -0.000010247   -0.000012392   -0.000011240
     24        6          -0.000003158    0.000000684    0.000002028
     25        6           0.000000723   -0.000003333    0.000002326
     26        6          -0.000000430   -0.000002327   -0.000000107
     27        6          -0.000000463   -0.000001753    0.000000996
     28        6          -0.000001650   -0.000001461   -0.000000822
     29        6           0.000002123   -0.000001716    0.000001682
     30        1           0.000000561    0.000002619   -0.000001816
     31        1          -0.000001400    0.000000808   -0.000001193
     32        1          -0.000001655    0.000000360   -0.000002291
     33        1           0.000000374    0.000000009   -0.000000721
     34        1          -0.000001822   -0.000001525   -0.000000587
     35        1          -0.000001084    0.000001180   -0.000000500
     36        1          -0.000000489   -0.000000372   -0.000000517
     37        1          -0.000000100    0.000001012   -0.000001426
     38        1          -0.000000075   -0.000000698   -0.000002792
     39        1          -0.000001717   -0.000000334   -0.000001010
     40        1           0.000000258    0.000001941   -0.000001716
     41        1           0.000001620   -0.000000258   -0.000001307
     42        1           0.000005174   -0.000001139   -0.000010516
     43        1           0.000002391   -0.000003074    0.000002239
     44        1           0.000000387   -0.000001370    0.000001909
     45        1           0.000000370   -0.000002266    0.000001915
     46        1           0.000000041   -0.000002659    0.000000669
     47        1          -0.000000562   -0.000002092   -0.000000429
     48        1          -0.000001037   -0.000001432   -0.000000365
 -------------------------------------------------------------------
 Cartesian Forces:  Max     0.000031357 RMS     0.000007480
 FormGI is forming the generalized inverse of G from B-inverse, IUseBI=4.

 ----------------------------------------------------------------------

 Electric dipole moment (input orientation):
 (Debye = 10**-18 statcoulomb cm , SI units = C m)
                  (au)            (Debye)         (10**-30 SI)
   Tot        0.419875D+01      0.106722D+02      0.355985D+02
   x          0.166585D+00      0.423417D+00      0.141237D+01
   y          0.402682D+01      0.102351D+02      0.341408D+02
   z          0.117750D+01      0.299292D+01      0.998330D+01

 Dipole polarizability, Alpha (input orientation).
 (esu units = cm**3 , SI units = C**2 m**2 J**-1)
 Alpha(0;0):
               (au)            (10**-24 esu)      (10**-40 SI)
   iso        0.318430D+03      0.471865D+02      0.525021D+02
   aniso      0.180852D+03      0.267995D+02      0.298184D+02
   xx         0.380759D+03      0.564227D+02      0.627787D+02
   yx         0.451090D+02      0.668447D+01      0.743747D+01
   yy         0.330471D+03      0.489707D+02      0.544873D+02
   zx         0.605281D+02      0.896934D+01      0.997974D+01
   zy        -0.205829D+02     -0.305007D+01     -0.339366D+01
   zz         0.244061D+03      0.361661D+02      0.402402D+02

 ----------------------------------------------------------------------

 Dipole orientation:
     6          2.11279581         -1.69850526          3.88217412
     6          3.14092292         -0.15550938          5.74050060
     6          2.61330894          2.42478487          5.74586174
     6          1.06753376          3.44758157          3.88165758
     6          0.05783471          1.90417340          2.00430388
     6         11.65166278          0.70201119          4.41449891
     6          6.25084940          1.95375626         -0.17013286
     6          8.16800466          2.32101555          1.58878941
     6          9.64771158          0.30664971          2.43191993
     6          9.19092617         -2.10567837          1.44336192
     6          7.28865607         -2.50702279         -0.31330961
     6          5.81967387         -0.46469103         -1.09117322
     8          2.03258668          1.41839647         -3.66514549
     8          4.35582150         -2.30929251         -5.50833027
    16          3.36080430         -0.96984338         -3.31081419
     7          1.56836996         -3.14686951         -1.86720387
     6         -0.39978603         -2.44464030         -0.05172701
     6          0.57365299         -0.67812799          1.99728166
     7         -5.78089957         -0.79598636         -3.95095439
     7         -3.29661640         -1.61703144         -3.73427022
     6         -2.76105898         -1.55484529         -1.35819850
     8         -4.72905541         -0.77121945          0.06273471
     6         -6.55379889         -0.31520244         -1.67827716
     6         -9.01105292          0.61981347         -0.84221466
     6        -10.90745108          1.04585706         -2.63420801
     6        -13.25123388          1.93929126         -1.86259702
     6        -13.71373212          2.41091692          0.68830606
     6        -11.82422435          1.98736644          2.47133241
     6         -9.47208212          1.09276885          1.71547283
     1          2.53768401         -3.70756904          3.86491563
     1          4.35253032         -0.96565860          7.18401262
     1          3.41104984          3.63412602          7.19872726
     1          0.65518961          5.45712518          3.87059839
     1         -1.10200795          2.73206326          0.53053521
     1         12.40237561          2.62654518          4.35579075
     1         10.86227463          0.39626045          6.30587481
     1         13.22168133         -0.62076545          4.17456906
     1          5.07601525          3.51231795         -0.78964842
     1          8.50035939          4.20563493          2.33125924
     1         10.33793100         -3.68994283          2.06716727
     1          6.92874522         -4.38621658         -1.05050516
     1          0.96660255         -4.40037909         -3.19472729
     1         -0.90659400         -4.22836458          0.87709760
     1        -10.52904068          0.67431412         -4.61470779
     1        -14.72106309          2.26896322         -3.25429400
     1        -15.54780139          3.10974972          1.28497899
     1        -12.17961304          2.35507013          4.45738650
     1         -7.99790195          0.76651676          3.10262192

 Electric dipole moment (dipole orientation):
 (Debye = 10**-18 statcoulomb cm , SI units = C m)
                  (au)            (Debye)         (10**-30 SI)
   Tot        0.419875D+01      0.106722D+02      0.355985D+02
   x          0.000000D+00      0.000000D+00      0.000000D+00
   y          0.000000D+00      0.000000D+00      0.000000D+00
   z          0.419875D+01      0.106722D+02      0.355985D+02

 Dipole polarizability, Alpha (dipole orientation).
 (esu units = cm**3 , SI units = C**2 m**2 J**-1)
 Alpha(0;0):
               (au)            (10**-24 esu)      (10**-40 SI)
   iso        0.318430D+03      0.471865D+02      0.525021D+02
   aniso      0.180852D+03      0.267995D+02      0.298184D+02
   xx         0.372977D+03      0.552694D+02      0.614955D+02
   yx        -0.503137D+02     -0.745573D+01     -0.829562D+01
   yy         0.264853D+03      0.392471D+02      0.436683D+02
   zx         0.639228D+02      0.947238D+01      0.105394D+02
   zy         0.368981D+02      0.546773D+01      0.608367D+01
   zz         0.317462D+03      0.470430D+02      0.523424D+02

 ----------------------------------------------------------------------

 This type of calculation cannot be archived.


 The theorems and results in mathematical physics are
 not theorems and results about Nature, but about our
 description of it.
                   --Gerard 't Hooft
 Job cpu time:       0 days  0 hours  0 minutes  1.9 seconds.
 Elapsed time:       0 days  0 hours  0 minutes  0.5 seconds.
 File lengths (MBytes):  RWF=      6 Int=      0 D2E=      0 Chk=      6 Scr=      1
 Normal termination of Gaussian 16 at Sat Apr  4 18:50:41 2020.
