 Entering Gaussian System, Link 0=g16
 Initial command:
 /apps/cent7/gaussian/g16-A.03/g16-haswell/g16/l1.exe "/scratch/brown/finej/0051_imine_mechanism/ts_631gd/acyclic_complete/new_logs_2/Gau-245030.inp" -scrdir="/scratch/brown/finej/0051_imine_mechanism/ts_631gd/acyclic_complete/new_logs_2/"
 Entering Link 1 = /apps/cent7/gaussian/g16-A.03/g16-haswell/g16/l1.exe PID=    245031.
  
 Copyright (c) 1988,1990,1992,1993,1995,1998,2003,2009,2016,
            Gaussian, Inc.  All Rights Reserved.
  
 This is part of the Gaussian(R) 16 program.  It is based on
 the Gaussian(R) 09 system (copyright 2009, Gaussian, Inc.),
 the Gaussian(R) 03 system (copyright 2003, Gaussian, Inc.),
 the Gaussian(R) 98 system (copyright 1998, Gaussian, Inc.),
 the Gaussian(R) 94 system (copyright 1995, Gaussian, Inc.),
 the Gaussian 92(TM) system (copyright 1992, Gaussian, Inc.),
 the Gaussian 90(TM) system (copyright 1990, Gaussian, Inc.),
 the Gaussian 88(TM) system (copyright 1988, Gaussian, Inc.),
 the Gaussian 86(TM) system (copyright 1986, Carnegie Mellon
 University), and the Gaussian 82(TM) system (copyright 1983,
 Carnegie Mellon University). Gaussian is a federally registered
 trademark of Gaussian, Inc.
  
 This software contains proprietary and confidential information,
 including trade secrets, belonging to Gaussian, Inc.
  
 This software is provided under written license and may be
 used, copied, transmitted, or stored only in accord with that
 written license.
  
 The following legend is applicable only to US Government
 contracts under FAR:
  
                    RESTRICTED RIGHTS LEGEND
  
 Use, reproduction and disclosure by the US Government is
 subject to restrictions as set forth in subparagraphs (a)
 and (c) of the Commercial Computer Software - Restricted
 Rights clause in FAR 52.227-19.
  
 Gaussian, Inc.
 340 Quinnipiac St., Bldg. 40, Wallingford CT 06492
  
  
 ---------------------------------------------------------------
 Warning -- This program may not be used in any manner that
 competes with the business of Gaussian, Inc. or will provide
 assistance to any competitor of Gaussian, Inc.  The licensee
 of this program is prohibited from giving any competitor of
 Gaussian, Inc. access to this program.  By using this program,
 the user acknowledges that Gaussian, Inc. is engaged in the
 business of creating and licensing software in the field of
 computational chemistry and represents and warrants to the
 licensee that it is not a competitor of Gaussian, Inc. and that
 it will not use this program in any manner prohibited above.
 ---------------------------------------------------------------
  

 Cite this work as:
 Gaussian 16, Revision A.03,
 M. J. Frisch, G. W. Trucks, H. B. Schlegel, G. E. Scuseria, 
 M. A. Robb, J. R. Cheeseman, G. Scalmani, V. Barone, 
 G. A. Petersson, H. Nakatsuji, X. Li, M. Caricato, A. V. Marenich, 
 J. Bloino, B. G. Janesko, R. Gomperts, B. Mennucci, H. P. Hratchian, 
 J. V. Ortiz, A. F. Izmaylov, J. L. Sonnenberg, D. Williams-Young, 
 F. Ding, F. Lipparini, F. Egidi, J. Goings, B. Peng, A. Petrone, 
 T. Henderson, D. Ranasinghe, V. G. Zakrzewski, J. Gao, N. Rega, 
 G. Zheng, W. Liang, M. Hada, M. Ehara, K. Toyota, R. Fukuda, 
 J. Hasegawa, M. Ishida, T. Nakajima, Y. Honda, O. Kitao, H. Nakai, 
 T. Vreven, K. Throssell, J. A. Montgomery, Jr., J. E. Peralta, 
 F. Ogliaro, M. J. Bearpark, J. J. Heyd, E. N. Brothers, K. N. Kudin, 
 V. N. Staroverov, T. A. Keith, R. Kobayashi, J. Normand, 
 K. Raghavachari, A. P. Rendell, J. C. Burant, S. S. Iyengar, 
 J. Tomasi, M. Cossi, J. M. Millam, M. Klene, C. Adamo, R. Cammi, 
 J. W. Ochterski, R. L. Martin, K. Morokuma, O. Farkas, 
 J. B. Foresman, and D. J. Fox, Gaussian, Inc., Wallingford CT, 2016.
 
 ******************************************
 Gaussian 16:  ES64L-G16RevA.03 25-Dec-2016
                 4-Apr-2020 
 ******************************************
 %nprocshared=4
 Will use up to    4 processors via shared memory.
 %mem=1GB
 %oldchk=chk/acyclic_1_to_2.chk
 Copying data from "chk/acyclic_1_to_2.chk" to current chk file "/scratch/brown/finej/0051_imine_mechanism/ts_631gd/acyclic_complete/new_logs_2/Gau-245031.chk"
 IOpt=  2 FromEx=T IUOpen= 4 IOptOp= 5 NList=   0 IFRang= 0 IUIn= 4 IUOut= 2.
 ----------------------------------------------------------------------
 # freq=readfc wb97xd/6-31g(d) scrf=solvent=dichloromethane geom=check 
 temperature=263.15
 ----------------------------------------------------------------------
 1/29=2,38=1,112=263150,172=1/1;
 2/12=2,40=1/2;
 7/8=1,25=11/16;
 99/5=2/99;
 -------------------------------
 Attack of PINC on Sulfonylimine
 -------------------------------
 Structure from the checkpoint file:  "/scratch/brown/finej/0051_imine_mechanism/ts_631gd/acyclic_complete/new_logs_2/Gau-245031.chk"
 Charge =  0 Multiplicity = 1
 Redundant internal coordinates found in file.  (old form).
 C,0,0.1736111021,4.3371434422,-0.9899131825
 C,0,1.1470803071,5.0235520736,-0.270916287
 C,0,1.2355424633,4.8631742137,1.1115258904
 C,0,0.3445078152,4.0171795567,1.7696486235
 C,0,-0.6319536331,3.3334688994,1.0513025261
 C,0,-0.7209537247,3.4918573092,-0.3318951701
 C,0,-1.7530835486,2.7355691361,-1.1228602822
 O,0,-3.9424879789,1.8320455797,-2.6765041688
 O,0,-5.2463882776,1.9173845073,-0.530531609
 S,0,-4.0054654085,1.5695204718,-1.2291493677
 N,0,-2.7623259973,2.2168703263,-0.4077910282
 C,0,-0.6137502487,1.356640036,-1.732537862
 N,0,-0.1088001758,0.3474852027,-1.4346934288
 C,0,2.8214435768,0.1864128823,0.0633286462
 N,0,0.4128624875,-0.824335456,-1.1592147089
 C,0,0.3832430808,-0.1545679515,1.6151153208
 C,0,1.7155053466,-2.5303891994,0.4994550514
 P,0,1.318779852,-0.8017389645,0.2100478906
 C,0,2.710944278,1.582139872,0.140374096
 C,0,3.8260645925,2.3771116361,-0.0966615496
 C,0,5.0492174092,1.7882146093,-0.4097992702
 C,0,5.1594571747,0.4020061505,-0.4951148736
 C,0,4.0472305354,-0.4012760844,-0.2672139031
 C,0,-1.0052605739,-0.3129588771,1.593996955
 C,0,-1.7659557734,0.1228091671,2.6725557801
 C,0,-1.1449262943,0.7157885952,3.7690914232
 C,0,0.2402416715,0.8715264221,3.7924539012
 C,0,1.0080451865,0.43775515,2.717584122
 C,0,2.5795650002,-2.8775364638,1.5434022085
 C,0,2.8312788198,-4.2179299529,1.8114051705
 C,0,2.2159335129,-5.2083287605,1.0474623581
 C,0,1.3486537241,-4.8614164393,0.0144718091
 C,0,1.0937001153,-3.5220800734,-0.2637557062
 H,0,0.1122222622,4.4501665842,-2.0694126167
 H,0,1.8372496777,5.6825274534,-0.7889562919
 H,0,1.9970541794,5.396384209,1.6728565258
 H,0,0.4110383337,3.8825416881,2.8449812065
 H,0,-1.9559332413,3.146119233,-2.1128341781
 H,0,1.7647238833,2.0520509743,0.3943945842
 H,0,3.7335418971,3.4564096293,-0.0337158927
 H,0,5.919528242,2.4114704466,-0.5899521427
 H,0,6.1118966706,-0.0558015791,-0.7414357482
 H,0,4.1368005454,-1.4804250411,-0.3437999743
 H,0,-1.4912771334,-0.7650613762,0.7352432375
 H,0,-2.8444553203,0.009085597,2.646339745
 H,0,-1.7415236143,1.0613605896,4.6075147114
 H,0,0.7231390322,1.3358997457,4.6461579296
 H,0,2.0849440254,0.5750158895,2.7358337928
 H,0,3.0572688417,-2.1091362635,2.1451410845
 H,0,3.5044752584,-4.4890259807,2.6178748289
 H,0,2.4118144277,-6.2543581616,1.2611929463
 H,0,0.8668094768,-5.6333417749,-0.576826011
 H,0,0.4148630276,-3.2393923466,-1.0612271758
 H,0,-1.3293051074,2.6703116029,1.5513382583
 C,0,-3.7483768554,-0.1800673411,-0.9908404205
 C,0,-4.2180668255,-0.7890335483,0.1714451074
 C,0,-2.9895715654,-0.8996511067,-1.9077221429
 C,0,-3.8898788454,-2.1144549125,0.4281913613
 H,0,-4.8312606768,-0.2244690398,0.8662392253
 C,0,-2.6591770345,-2.2229991506,-1.6324153887
 H,0,-2.653164869,-0.4266701163,-2.8235322867
 C,0,-3.0853151014,-2.8435284389,-0.4559952124
 H,0,-4.2518015372,-2.5877161818,1.3371346935
 H,0,-2.0526372504,-2.7775233052,-2.3428648487
 C,0,-2.6610573619,-4.2515824342,-0.127574798
 H,0,-2.4170787958,-4.8167826372,-1.0318644099
 H,0,-1.7658806984,-4.2415664336,0.5063958367
 H,0,-3.4434285633,-4.7894556901,0.4160366162
 Recover connectivity data from disk.
                           ----------------------------
                           !    Current Parameters    !
                           ! (Angstroms and Degrees)  !
 --------------------------                            --------------------------
 ! Name  Definition              Value          Derivative Info.                !
 --------------------------------------------------------------------------------
 ! R1    R(1,2)                  1.3913         estimate D2E/DX2                !
 ! R2    R(1,6)                  1.3956         estimate D2E/DX2                !
 ! R3    R(1,34)                 1.0871         estimate D2E/DX2                !
 ! R4    R(2,3)                  1.3945         estimate D2E/DX2                !
 ! R5    R(2,35)                 1.0858         estimate D2E/DX2                !
 ! R6    R(3,4)                  1.3938         estimate D2E/DX2                !
 ! R7    R(3,36)                 1.086          estimate D2E/DX2                !
 ! R8    R(4,5)                  1.3917         estimate D2E/DX2                !
 ! R9    R(4,37)                 1.0858         estimate D2E/DX2                !
 ! R10   R(5,6)                  1.3951         estimate D2E/DX2                !
 ! R11   R(5,54)                 1.0845         estimate D2E/DX2                !
 ! R12   R(6,7)                  1.5043         estimate D2E/DX2                !
 ! R13   R(7,11)                 1.3412         estimate D2E/DX2                !
 ! R14   R(7,12)                 1.8898         estimate D2E/DX2                !
 ! R15   R(7,38)                 1.0908         estimate D2E/DX2                !
 ! R16   R(8,10)                 1.4723         estimate D2E/DX2                !
 ! R17   R(9,10)                 1.4659         estimate D2E/DX2                !
 ! R18   R(10,11)                1.6245         estimate D2E/DX2                !
 ! R19   R(10,55)                1.7844         estimate D2E/DX2                !
 ! R20   R(12,13)                1.1671         estimate D2E/DX2                !
 ! R21   R(13,15)                1.3119         estimate D2E/DX2                !
 ! R22   R(14,18)                1.8044         estimate D2E/DX2                !
 ! R23   R(14,19)                1.4022         estimate D2E/DX2                !
 ! R24   R(14,23)                1.399          estimate D2E/DX2                !
 ! R25   R(15,18)                1.642          estimate D2E/DX2                !
 ! R26   R(16,18)                1.8078         estimate D2E/DX2                !
 ! R27   R(16,24)                1.3977         estimate D2E/DX2                !
 ! R28   R(16,28)                1.3988         estimate D2E/DX2                !
 ! R29   R(17,18)                1.797          estimate D2E/DX2                !
 ! R30   R(17,29)                1.3989         estimate D2E/DX2                !
 ! R31   R(17,33)                1.3973         estimate D2E/DX2                !
 ! R32   R(19,20)                1.3898         estimate D2E/DX2                !
 ! R33   R(19,39)                1.0866         estimate D2E/DX2                !
 ! R34   R(20,21)                1.3932         estimate D2E/DX2                !
 ! R35   R(20,40)                1.0851         estimate D2E/DX2                !
 ! R36   R(21,22)                1.3932         estimate D2E/DX2                !
 ! R37   R(21,41)                1.0855         estimate D2E/DX2                !
 ! R38   R(22,23)                1.3908         estimate D2E/DX2                !
 ! R39   R(22,42)                1.0851         estimate D2E/DX2                !
 ! R40   R(23,43)                1.0856         estimate D2E/DX2                !
 ! R41   R(24,25)                1.3899         estimate D2E/DX2                !
 ! R42   R(24,44)                1.0854         estimate D2E/DX2                !
 ! R43   R(25,26)                1.3927         estimate D2E/DX2                !
 ! R44   R(25,45)                1.0848         estimate D2E/DX2                !
 ! R45   R(26,27)                1.3941         estimate D2E/DX2                !
 ! R46   R(26,46)                1.0855         estimate D2E/DX2                !
 ! R47   R(27,28)                1.3903         estimate D2E/DX2                !
 ! R48   R(27,47)                1.0852         estimate D2E/DX2                !
 ! R49   R(28,48)                1.0858         estimate D2E/DX2                !
 ! R50   R(29,30)                1.3899         estimate D2E/DX2                !
 ! R51   R(29,49)                1.0866         estimate D2E/DX2                !
 ! R52   R(30,31)                1.394          estimate D2E/DX2                !
 ! R53   R(30,50)                1.0849         estimate D2E/DX2                !
 ! R54   R(31,32)                1.3927         estimate D2E/DX2                !
 ! R55   R(31,51)                1.0855         estimate D2E/DX2                !
 ! R56   R(32,33)                1.3915         estimate D2E/DX2                !
 ! R57   R(32,52)                1.0852         estimate D2E/DX2                !
 ! R58   R(33,53)                1.0848         estimate D2E/DX2                !
 ! R59   R(55,56)                1.3937         estimate D2E/DX2                !
 ! R60   R(55,57)                1.3908         estimate D2E/DX2                !
 ! R61   R(56,58)                1.3894         estimate D2E/DX2                !
 ! R62   R(56,59)                1.0851         estimate D2E/DX2                !
 ! R63   R(57,60)                1.3915         estimate D2E/DX2                !
 ! R64   R(57,61)                1.0842         estimate D2E/DX2                !
 ! R65   R(58,62)                1.4002         estimate D2E/DX2                !
 ! R66   R(58,63)                1.0868         estimate D2E/DX2                !
 ! R67   R(60,62)                1.3966         estimate D2E/DX2                !
 ! R68   R(60,64)                1.0863         estimate D2E/DX2                !
 ! R69   R(62,65)                1.5068         estimate D2E/DX2                !
 ! R70   R(65,66)                1.0939         estimate D2E/DX2                !
 ! R71   R(65,67)                1.097          estimate D2E/DX2                !
 ! R72   R(65,68)                1.094          estimate D2E/DX2                !
 ! A1    A(2,1,6)              120.2408         estimate D2E/DX2                !
 ! A2    A(2,1,34)             120.0903         estimate D2E/DX2                !
 ! A3    A(6,1,34)             119.6665         estimate D2E/DX2                !
 ! A4    A(1,2,3)              119.9963         estimate D2E/DX2                !
 ! A5    A(1,2,35)             119.8414         estimate D2E/DX2                !
 ! A6    A(3,2,35)             120.1622         estimate D2E/DX2                !
 ! A7    A(2,3,4)              119.8234         estimate D2E/DX2                !
 ! A8    A(2,3,36)             120.0289         estimate D2E/DX2                !
 ! A9    A(4,3,36)             120.1478         estimate D2E/DX2                !
 ! A10   A(3,4,5)              120.1975         estimate D2E/DX2                !
 ! A11   A(3,4,37)             120.2465         estimate D2E/DX2                !
 ! A12   A(5,4,37)             119.5551         estimate D2E/DX2                !
 ! A13   A(4,5,6)              120.0487         estimate D2E/DX2                !
 ! A14   A(4,5,54)             120.9019         estimate D2E/DX2                !
 ! A15   A(6,5,54)             119.049          estimate D2E/DX2                !
 ! A16   A(1,6,5)              119.6926         estimate D2E/DX2                !
 ! A17   A(1,6,7)              119.7612         estimate D2E/DX2                !
 ! A18   A(5,6,7)              120.5321         estimate D2E/DX2                !
 ! A19   A(6,7,11)             115.4921         estimate D2E/DX2                !
 ! A20   A(6,7,12)              97.0552         estimate D2E/DX2                !
 ! A21   A(6,7,38)             114.5566         estimate D2E/DX2                !
 ! A22   A(11,7,12)            110.0884         estimate D2E/DX2                !
 ! A23   A(11,7,38)            119.3078         estimate D2E/DX2                !
 ! A24   A(12,7,38)             95.3912         estimate D2E/DX2                !
 ! A25   A(8,10,9)             117.5411         estimate D2E/DX2                !
 ! A26   A(8,10,11)            113.1563         estimate D2E/DX2                !
 ! A27   A(8,10,55)            107.4552         estimate D2E/DX2                !
 ! A28   A(9,10,11)            108.1956         estimate D2E/DX2                !
 ! A29   A(9,10,55)            106.9172         estimate D2E/DX2                !
 ! A30   A(11,10,55)           102.2948         estimate D2E/DX2                !
 ! A31   A(7,11,10)            117.4105         estimate D2E/DX2                !
 ! A32   A(7,12,13)            144.0429         estimate D2E/DX2                !
 ! A33   A(18,14,19)           118.3594         estimate D2E/DX2                !
 ! A34   A(18,14,23)           121.2535         estimate D2E/DX2                !
 ! A35   A(19,14,23)           120.0109         estimate D2E/DX2                !
 ! A36   A(13,15,18)           112.4695         estimate D2E/DX2                !
 ! A37   A(18,16,24)           117.5023         estimate D2E/DX2                !
 ! A38   A(18,16,28)           122.2082         estimate D2E/DX2                !
 ! A39   A(24,16,28)           120.2408         estimate D2E/DX2                !
 ! A40   A(18,17,29)           119.6864         estimate D2E/DX2                !
 ! A41   A(18,17,33)           119.7677         estimate D2E/DX2                !
 ! A42   A(29,17,33)           120.4201         estimate D2E/DX2                !
 ! A43   A(14,18,15)           113.5273         estimate D2E/DX2                !
 ! A44   A(14,18,16)           107.3437         estimate D2E/DX2                !
 ! A45   A(14,18,17)           110.8567         estimate D2E/DX2                !
 ! A46   A(15,18,16)           111.5639         estimate D2E/DX2                !
 ! A47   A(15,18,17)           104.0555         estimate D2E/DX2                !
 ! A48   A(16,18,17)           109.4773         estimate D2E/DX2                !
 ! A49   A(14,19,20)           119.7848         estimate D2E/DX2                !
 ! A50   A(14,19,39)           120.7927         estimate D2E/DX2                !
 ! A51   A(20,19,39)           119.4191         estimate D2E/DX2                !
 ! A52   A(19,20,21)           120.0642         estimate D2E/DX2                !
 ! A53   A(19,20,40)           119.382          estimate D2E/DX2                !
 ! A54   A(21,20,40)           120.5537         estimate D2E/DX2                !
 ! A55   A(20,21,22)           120.2525         estimate D2E/DX2                !
 ! A56   A(20,21,41)           119.9013         estimate D2E/DX2                !
 ! A57   A(22,21,41)           119.8461         estimate D2E/DX2                !
 ! A58   A(21,22,23)           120.0905         estimate D2E/DX2                !
 ! A59   A(21,22,42)           120.2086         estimate D2E/DX2                !
 ! A60   A(23,22,42)           119.7008         estimate D2E/DX2                !
 ! A61   A(14,23,22)           119.7881         estimate D2E/DX2                !
 ! A62   A(14,23,43)           120.4349         estimate D2E/DX2                !
 ! A63   A(22,23,43)           119.7767         estimate D2E/DX2                !
 ! A64   A(16,24,25)           119.7658         estimate D2E/DX2                !
 ! A65   A(16,24,44)           120.2653         estimate D2E/DX2                !
 ! A66   A(25,24,44)           119.966          estimate D2E/DX2                !
 ! A67   A(24,25,26)           120.0268         estimate D2E/DX2                !
 ! A68   A(24,25,45)           119.5052         estimate D2E/DX2                !
 ! A69   A(26,25,45)           120.4631         estimate D2E/DX2                !
 ! A70   A(25,26,27)           120.2525         estimate D2E/DX2                !
 ! A71   A(25,26,46)           119.907          estimate D2E/DX2                !
 ! A72   A(27,26,46)           119.8402         estimate D2E/DX2                !
 ! A73   A(26,27,28)           120.0596         estimate D2E/DX2                !
 ! A74   A(26,27,47)           120.2071         estimate D2E/DX2                !
 ! A75   A(28,27,47)           119.7326         estimate D2E/DX2                !
 ! A76   A(16,28,27)           119.6541         estimate D2E/DX2                !
 ! A77   A(16,28,48)           120.6505         estimate D2E/DX2                !
 ! A78   A(27,28,48)           119.6895         estimate D2E/DX2                !
 ! A79   A(17,29,30)           119.6745         estimate D2E/DX2                !
 ! A80   A(17,29,49)           120.6185         estimate D2E/DX2                !
 ! A81   A(30,29,49)           119.7069         estimate D2E/DX2                !
 ! A82   A(29,30,31)           119.971          estimate D2E/DX2                !
 ! A83   A(29,30,50)           119.7803         estimate D2E/DX2                !
 ! A84   A(31,30,50)           120.2484         estimate D2E/DX2                !
 ! A85   A(30,31,32)           120.292          estimate D2E/DX2                !
 ! A86   A(30,31,51)           119.8088         estimate D2E/DX2                !
 ! A87   A(32,31,51)           119.8989         estimate D2E/DX2                !
 ! A88   A(31,32,33)           120.1434         estimate D2E/DX2                !
 ! A89   A(31,32,52)           120.2291         estimate D2E/DX2                !
 ! A90   A(33,32,52)           119.6274         estimate D2E/DX2                !
 ! A91   A(17,33,32)           119.4955         estimate D2E/DX2                !
 ! A92   A(17,33,53)           119.6738         estimate D2E/DX2                !
 ! A93   A(32,33,53)           120.8299         estimate D2E/DX2                !
 ! A94   A(10,55,56)           119.4231         estimate D2E/DX2                !
 ! A95   A(10,55,57)           119.8596         estimate D2E/DX2                !
 ! A96   A(56,55,57)           120.504          estimate D2E/DX2                !
 ! A97   A(55,56,58)           119.4285         estimate D2E/DX2                !
 ! A98   A(55,56,59)           119.8079         estimate D2E/DX2                !
 ! A99   A(58,56,59)           120.7632         estimate D2E/DX2                !
 ! A100  A(55,57,60)           119.418          estimate D2E/DX2                !
 ! A101  A(55,57,61)           120.0279         estimate D2E/DX2                !
 ! A102  A(60,57,61)           120.5519         estimate D2E/DX2                !
 ! A103  A(56,58,62)           121.0476         estimate D2E/DX2                !
 ! A104  A(56,58,63)           119.4264         estimate D2E/DX2                !
 ! A105  A(62,58,63)           119.52           estimate D2E/DX2                !
 ! A106  A(57,60,62)           121.1148         estimate D2E/DX2                !
 ! A107  A(57,60,64)           119.2513         estimate D2E/DX2                !
 ! A108  A(62,60,64)           119.632          estimate D2E/DX2                !
 ! A109  A(58,62,60)           118.4158         estimate D2E/DX2                !
 ! A110  A(58,62,65)           120.7109         estimate D2E/DX2                !
 ! A111  A(60,62,65)           120.8547         estimate D2E/DX2                !
 ! A112  A(62,65,66)           111.4338         estimate D2E/DX2                !
 ! A113  A(62,65,67)           110.3159         estimate D2E/DX2                !
 ! A114  A(62,65,68)           111.4918         estimate D2E/DX2                !
 ! A115  A(66,65,67)           107.4846         estimate D2E/DX2                !
 ! A116  A(66,65,68)           108.4344         estimate D2E/DX2                !
 ! A117  A(67,65,68)           107.5113         estimate D2E/DX2                !
 ! A118  L(12,13,15,8,-1)      177.052          estimate D2E/DX2                !
 ! A119  L(12,13,15,8,-2)      176.7555         estimate D2E/DX2                !
 ! D1    D(6,1,2,3)              0.3088         estimate D2E/DX2                !
 ! D2    D(6,1,2,35)          -179.7608         estimate D2E/DX2                !
 ! D3    D(34,1,2,3)          -179.1359         estimate D2E/DX2                !
 ! D4    D(34,1,2,35)            0.7946         estimate D2E/DX2                !
 ! D5    D(2,1,6,5)             -0.2474         estimate D2E/DX2                !
 ! D6    D(2,1,6,7)           -178.886          estimate D2E/DX2                !
 ! D7    D(34,1,6,5)           179.1996         estimate D2E/DX2                !
 ! D8    D(34,1,6,7)             0.561          estimate D2E/DX2                !
 ! D9    D(1,2,3,4)             -0.177          estimate D2E/DX2                !
 ! D10   D(1,2,3,36)           179.8171         estimate D2E/DX2                !
 ! D11   D(35,2,3,4)           179.8928         estimate D2E/DX2                !
 ! D12   D(35,2,3,36)           -0.1131         estimate D2E/DX2                !
 ! D13   D(2,3,4,5)             -0.015          estimate D2E/DX2                !
 ! D14   D(2,3,4,37)           179.6258         estimate D2E/DX2                !
 ! D15   D(36,3,4,5)           179.9909         estimate D2E/DX2                !
 ! D16   D(36,3,4,37)           -0.3683         estimate D2E/DX2                !
 ! D17   D(3,4,5,6)              0.0758         estimate D2E/DX2                !
 ! D18   D(3,4,5,54)           179.8306         estimate D2E/DX2                !
 ! D19   D(37,4,5,6)          -179.5675         estimate D2E/DX2                !
 ! D20   D(37,4,5,54)            0.1873         estimate D2E/DX2                !
 ! D21   D(4,5,6,1)              0.0549         estimate D2E/DX2                !
 ! D22   D(4,5,6,7)            178.6829         estimate D2E/DX2                !
 ! D23   D(54,5,6,1)          -179.7044         estimate D2E/DX2                !
 ! D24   D(54,5,6,7)            -1.0765         estimate D2E/DX2                !
 ! D25   D(1,6,7,11)          -164.28           estimate D2E/DX2                !
 ! D26   D(1,6,7,12)            79.461          estimate D2E/DX2                !
 ! D27   D(1,6,7,38)           -19.7828         estimate D2E/DX2                !
 ! D28   D(5,6,7,11)            17.093          estimate D2E/DX2                !
 ! D29   D(5,6,7,12)           -99.166          estimate D2E/DX2                !
 ! D30   D(5,6,7,38)           161.5902         estimate D2E/DX2                !
 ! D31   D(6,7,11,10)          171.7918         estimate D2E/DX2                !
 ! D32   D(12,7,11,10)         -79.5898         estimate D2E/DX2                !
 ! D33   D(38,7,11,10)          29.0746         estimate D2E/DX2                !
 ! D34   D(6,7,12,13)           80.5432         estimate D2E/DX2                !
 ! D35   D(11,7,12,13)         -39.9227         estimate D2E/DX2                !
 ! D36   D(38,7,12,13)        -163.843          estimate D2E/DX2                !
 ! D37   D(8,10,11,7)           -8.9495         estimate D2E/DX2                !
 ! D38   D(9,10,11,7)         -141.013          estimate D2E/DX2                !
 ! D39   D(55,10,11,7)         106.335          estimate D2E/DX2                !
 ! D40   D(8,10,55,56)        -156.9897         estimate D2E/DX2                !
 ! D41   D(8,10,55,57)          28.2889         estimate D2E/DX2                !
 ! D42   D(9,10,55,56)         -29.9574         estimate D2E/DX2                !
 ! D43   D(9,10,55,57)         155.3212         estimate D2E/DX2                !
 ! D44   D(11,10,55,56)         83.6416         estimate D2E/DX2                !
 ! D45   D(11,10,55,57)        -91.0798         estimate D2E/DX2                !
 ! D46   D(7,12,15,18)         -57.6594         estimate D2E/DX2                !
 ! D47   D(19,14,18,15)         77.5769         estimate D2E/DX2                !
 ! D48   D(19,14,18,16)        -46.1977         estimate D2E/DX2                !
 ! D49   D(19,14,18,17)       -165.7222         estimate D2E/DX2                !
 ! D50   D(23,14,18,15)        -95.3805         estimate D2E/DX2                !
 ! D51   D(23,14,18,16)        140.845          estimate D2E/DX2                !
 ! D52   D(23,14,18,17)         21.3205         estimate D2E/DX2                !
 ! D53   D(18,14,19,20)       -173.8245         estimate D2E/DX2                !
 ! D54   D(18,14,19,39)          6.8508         estimate D2E/DX2                !
 ! D55   D(23,14,19,20)         -0.7769         estimate D2E/DX2                !
 ! D56   D(23,14,19,39)        179.8985         estimate D2E/DX2                !
 ! D57   D(18,14,23,22)        173.9919         estimate D2E/DX2                !
 ! D58   D(18,14,23,43)         -6.2102         estimate D2E/DX2                !
 ! D59   D(19,14,23,22)          1.1495         estimate D2E/DX2                !
 ! D60   D(19,14,23,43)       -179.0527         estimate D2E/DX2                !
 ! D61   D(13,15,18,14)        -67.2499         estimate D2E/DX2                !
 ! D62   D(13,15,18,16)         54.1939         estimate D2E/DX2                !
 ! D63   D(13,15,18,17)        172.1331         estimate D2E/DX2                !
 ! D64   D(24,16,18,14)        152.4232         estimate D2E/DX2                !
 ! D65   D(24,16,18,15)         27.4568         estimate D2E/DX2                !
 ! D66   D(24,16,18,17)        -87.1736         estimate D2E/DX2                !
 ! D67   D(28,16,18,14)        -30.1105         estimate D2E/DX2                !
 ! D68   D(28,16,18,15)       -155.0769         estimate D2E/DX2                !
 ! D69   D(28,16,18,17)         90.2928         estimate D2E/DX2                !
 ! D70   D(18,16,24,25)        177.64           estimate D2E/DX2                !
 ! D71   D(18,16,24,44)         -2.9872         estimate D2E/DX2                !
 ! D72   D(28,16,24,25)          0.1214         estimate D2E/DX2                !
 ! D73   D(28,16,24,44)        179.4943         estimate D2E/DX2                !
 ! D74   D(18,16,28,27)       -177.5421         estimate D2E/DX2                !
 ! D75   D(18,16,28,48)          3.3468         estimate D2E/DX2                !
 ! D76   D(24,16,28,27)         -0.1435         estimate D2E/DX2                !
 ! D77   D(24,16,28,48)       -179.2546         estimate D2E/DX2                !
 ! D78   D(29,17,18,14)         52.5075         estimate D2E/DX2                !
 ! D79   D(29,17,18,15)        174.9021         estimate D2E/DX2                !
 ! D80   D(29,17,18,16)        -65.7293         estimate D2E/DX2                !
 ! D81   D(33,17,18,14)       -131.5517         estimate D2E/DX2                !
 ! D82   D(33,17,18,15)         -9.1571         estimate D2E/DX2                !
 ! D83   D(33,17,18,16)        110.2115         estimate D2E/DX2                !
 ! D84   D(18,17,29,30)        176.6441         estimate D2E/DX2                !
 ! D85   D(18,17,29,49)         -3.4881         estimate D2E/DX2                !
 ! D86   D(33,17,29,30)          0.7302         estimate D2E/DX2                !
 ! D87   D(33,17,29,49)       -179.402          estimate D2E/DX2                !
 ! D88   D(18,17,33,32)       -176.4493         estimate D2E/DX2                !
 ! D89   D(18,17,33,53)          3.2152         estimate D2E/DX2                !
 ! D90   D(29,17,33,32)         -0.5388         estimate D2E/DX2                !
 ! D91   D(29,17,33,53)        179.1258         estimate D2E/DX2                !
 ! D92   D(14,19,20,21)          0.0035         estimate D2E/DX2                !
 ! D93   D(14,19,20,40)       -179.901          estimate D2E/DX2                !
 ! D94   D(39,19,20,21)        179.3375         estimate D2E/DX2                !
 ! D95   D(39,19,20,40)         -0.567          estimate D2E/DX2                !
 ! D96   D(19,20,21,22)          0.3981         estimate D2E/DX2                !
 ! D97   D(19,20,21,41)       -179.7193         estimate D2E/DX2                !
 ! D98   D(40,20,21,22)       -179.6985         estimate D2E/DX2                !
 ! D99   D(40,20,21,41)          0.1841         estimate D2E/DX2                !
 ! D100  D(20,21,22,23)         -0.023          estimate D2E/DX2                !
 ! D101  D(20,21,22,42)        179.8502         estimate D2E/DX2                !
 ! D102  D(41,21,22,23)       -179.9056         estimate D2E/DX2                !
 ! D103  D(41,21,22,42)         -0.0324         estimate D2E/DX2                !
 ! D104  D(21,22,23,14)         -0.7498         estimate D2E/DX2                !
 ! D105  D(21,22,23,43)        179.451          estimate D2E/DX2                !
 ! D106  D(42,22,23,14)        179.3763         estimate D2E/DX2                !
 ! D107  D(42,22,23,43)         -0.4229         estimate D2E/DX2                !
 ! D108  D(16,24,25,26)          0.0448         estimate D2E/DX2                !
 ! D109  D(16,24,25,45)        179.2369         estimate D2E/DX2                !
 ! D110  D(44,24,25,26)       -179.33           estimate D2E/DX2                !
 ! D111  D(44,24,25,45)         -0.1378         estimate D2E/DX2                !
 ! D112  D(24,25,26,27)         -0.1891         estimate D2E/DX2                !
 ! D113  D(24,25,26,46)        179.5961         estimate D2E/DX2                !
 ! D114  D(45,25,26,27)       -179.3734         estimate D2E/DX2                !
 ! D115  D(45,25,26,46)          0.4118         estimate D2E/DX2                !
 ! D116  D(25,26,27,28)          0.1668         estimate D2E/DX2                !
 ! D117  D(25,26,27,47)        179.848          estimate D2E/DX2                !
 ! D118  D(46,26,27,28)       -179.6185         estimate D2E/DX2                !
 ! D119  D(46,26,27,47)          0.0627         estimate D2E/DX2                !
 ! D120  D(26,27,28,16)         -0.0005         estimate D2E/DX2                !
 ! D121  D(26,27,28,48)        179.1193         estimate D2E/DX2                !
 ! D122  D(47,27,28,16)       -179.6832         estimate D2E/DX2                !
 ! D123  D(47,27,28,48)         -0.5634         estimate D2E/DX2                !
 ! D124  D(17,29,30,31)         -0.4685         estimate D2E/DX2                !
 ! D125  D(17,29,30,50)        179.7354         estimate D2E/DX2                !
 ! D126  D(49,29,30,31)        179.6625         estimate D2E/DX2                !
 ! D127  D(49,29,30,50)         -0.1336         estimate D2E/DX2                !
 ! D128  D(29,30,31,32)          0.0214         estimate D2E/DX2                !
 ! D129  D(29,30,31,51)       -179.7957         estimate D2E/DX2                !
 ! D130  D(50,30,31,32)        179.8165         estimate D2E/DX2                !
 ! D131  D(50,30,31,51)         -0.0005         estimate D2E/DX2                !
 ! D132  D(30,31,32,33)          0.1707         estimate D2E/DX2                !
 ! D133  D(30,31,32,52)       -179.7336         estimate D2E/DX2                !
 ! D134  D(51,31,32,33)        179.9876         estimate D2E/DX2                !
 ! D135  D(51,31,32,52)          0.0833         estimate D2E/DX2                !
 ! D136  D(31,32,33,17)          0.0876         estimate D2E/DX2                !
 ! D137  D(31,32,33,53)       -179.573          estimate D2E/DX2                !
 ! D138  D(52,32,33,17)        179.9925         estimate D2E/DX2                !
 ! D139  D(52,32,33,53)          0.3319         estimate D2E/DX2                !
 ! D140  D(10,55,56,58)       -172.844          estimate D2E/DX2                !
 ! D141  D(10,55,56,59)          6.9372         estimate D2E/DX2                !
 ! D142  D(57,55,56,58)          1.8426         estimate D2E/DX2                !
 ! D143  D(57,55,56,59)       -178.3761         estimate D2E/DX2                !
 ! D144  D(10,55,57,60)        172.2895         estimate D2E/DX2                !
 ! D145  D(10,55,57,61)         -7.1666         estimate D2E/DX2                !
 ! D146  D(56,55,57,60)         -2.374          estimate D2E/DX2                !
 ! D147  D(56,55,57,61)        178.1699         estimate D2E/DX2                !
 ! D148  D(55,56,58,62)          0.58           estimate D2E/DX2                !
 ! D149  D(55,56,58,63)        179.6788         estimate D2E/DX2                !
 ! D150  D(59,56,58,62)       -179.1991         estimate D2E/DX2                !
 ! D151  D(59,56,58,63)         -0.1003         estimate D2E/DX2                !
 ! D152  D(55,57,60,62)          0.4963         estimate D2E/DX2                !
 ! D153  D(55,57,60,64)       -179.0037         estimate D2E/DX2                !
 ! D154  D(61,57,60,62)        179.9495         estimate D2E/DX2                !
 ! D155  D(61,57,60,64)          0.4495         estimate D2E/DX2                !
 ! D156  D(56,58,62,60)         -2.3967         estimate D2E/DX2                !
 ! D157  D(56,58,62,65)        176.0483         estimate D2E/DX2                !
 ! D158  D(63,58,62,60)        178.5053         estimate D2E/DX2                !
 ! D159  D(63,58,62,65)         -3.0496         estimate D2E/DX2                !
 ! D160  D(57,60,62,58)          1.8543         estimate D2E/DX2                !
 ! D161  D(57,60,62,65)       -176.5885         estimate D2E/DX2                !
 ! D162  D(64,60,62,58)       -178.6476         estimate D2E/DX2                !
 ! D163  D(64,60,62,65)          2.9097         estimate D2E/DX2                !
 ! D164  D(58,62,65,66)        156.2503         estimate D2E/DX2                !
 ! D165  D(58,62,65,67)        -84.4403         estimate D2E/DX2                !
 ! D166  D(58,62,65,68)         34.9399         estimate D2E/DX2                !
 ! D167  D(60,62,65,66)        -25.3428         estimate D2E/DX2                !
 ! D168  D(60,62,65,67)         93.9666         estimate D2E/DX2                !
 ! D169  D(60,62,65,68)       -146.6531         estimate D2E/DX2                !
 --------------------------------------------------------------------------------
 Stoichiometry    C33H28N3O2PS
 Framework group  C1[X(C33H28N3O2PS)]
 Deg. of freedom   198
 Full point group                 C1      NOp   1
 Largest Abelian subgroup         C1      NOp   1
 Largest concise Abelian subgroup C1      NOp   1
                         Standard orientation:                         
 ---------------------------------------------------------------------
 Center     Atomic      Atomic             Coordinates (Angstroms)
 Number     Number       Type             X           Y           Z
 ---------------------------------------------------------------------
      1          6           0       -1.490583    3.961512   -0.965984
      2          6           0       -0.746973    4.997464   -0.409566
      3          6           0       -0.333751    4.922940    0.920242
      4          6           0       -0.670906    3.810650    1.689601
      5          6           0       -1.418141    2.776001    1.134534
      6          6           0       -1.831207    2.848466   -0.196018
      7          6           0       -2.613975    1.723156   -0.815568
      8          8           0       -4.526746   -0.017795   -1.970579
      9          8           0       -5.311062   -0.399654    0.385619
     10         16           0       -4.196449   -0.244442   -0.553803
     11          7           0       -3.175305    0.865633    0.049593
     12          6           0       -1.166136    0.894678   -1.703611
     13          7           0       -0.256189    0.177802   -1.561610
     14          6           0        2.731015    1.235210   -0.658920
     15          7           0        0.728599   -0.682238   -1.453409
     16          6           0        0.980457   -0.004583    1.307700
     17          6           0        2.896016   -1.684458   -0.166342
     18         15           0        1.800848   -0.264400   -0.282183
     19          6           0        2.095920    2.473579   -0.487756
     20          6           0        2.736773    3.639528   -0.889665
     21          6           0        4.006009    3.577029   -1.460709
     22          6           0        4.635495    2.347064   -1.639422
     23          6           0        3.998733    1.174395   -1.247462
     24          6           0       -0.207621   -0.702284    1.542562
     25          6           0       -0.851489   -0.575721    2.767820
     26          6           0       -0.313513    0.244681    3.756362
     27          6           0        0.873058    0.938683    3.524192
     28          6           0        1.523240    0.816877    2.301306
     29          6           0        4.012995   -1.631201    0.674169
     30          6           0        4.820530   -2.753352    0.817361
     31          6           0        4.509618   -3.927016    0.132529
     32          6           0        3.391985   -3.981472   -0.696641
     33          6           0        2.579959   -2.861855   -0.849297
     34          1           0       -1.801531    4.011561   -2.006498
     35          1           0       -0.488900    5.862174   -1.013406
     36          1           0        0.249210    5.729866    1.354215
     37          1           0       -0.347625    3.742706    2.723897
     38          1           0       -3.151847    1.992306   -1.725513
     39          1           0        1.110692    2.535404   -0.033687
     40          1           0        2.239970    4.594422   -0.752660
     41          1           0        4.506010    4.489718   -1.769484
     42          1           0        5.623034    2.299020   -2.086479
     43          1           0        4.490157    0.218095   -1.397270
     44          1           0       -0.633481   -1.333373    0.768976
     45          1           0       -1.779904   -1.109381    2.941123
     46          1           0       -0.821449    0.347232    4.710189
     47          1           0        1.290285    1.579651    4.294078
     48          1           0        2.439368    1.371273    2.121756
     49          1           0        4.256242   -0.720255    1.214297
     50          1           0        5.689680   -2.712623    1.465434
     51          1           0        5.140210   -4.802828    0.248874
     52          1           0        3.148455   -4.897015   -1.225935
     53          1           0        1.702929   -2.893950   -1.486856
     54          1           0       -1.684533    1.904114    1.721867
     55          6           0       -3.228367   -1.740586   -0.462620
     56          6           0       -3.182198   -2.454360    0.733521
     57          6           0       -2.442523   -2.123847   -1.544201
     58          6           0       -2.314124   -3.532689    0.851936
     59          1           0       -3.819585   -2.161426    1.561413
     60          6           0       -1.569655   -3.198895   -1.407899
     61          1           0       -2.506433   -1.581104   -2.480648
     62          6           0       -1.477059   -3.905583   -0.206803
     63          1           0       -2.274352   -4.086017    1.786489
     64          1           0       -0.945268   -3.485688   -2.249336
     65          6           0       -0.476098   -5.019583   -0.040812
     66          1           0       -0.210899   -5.465512   -1.003897
     67          1           0        0.447603   -4.637456    0.410980
     68          1           0       -0.859744   -5.809167    0.612104
 ---------------------------------------------------------------------
 Rotational constants (GHZ):           0.1071566           0.0916659           0.0626922
 Electric field and nuclear coordinate derivatives read from checkpoint file.
 Rotating derivatives to standard orientation.
 Full mass-weighted force constant matrix:
 Low frequencies --- -373.4116   -6.3910   -0.0086    0.0081    0.0173    2.7772
 Low frequencies ---    4.4806   16.5427   22.5955
 ******    1 imaginary frequencies (negative Signs) ****** 
 Diagonal vibrational polarizability:
      388.3661425      97.5043062     254.4159656
 Harmonic frequencies (cm**-1), IR intensities (KM/Mole), Raman scattering
 activities (A**4/AMU), depolarization ratios for plane and unpolarized
 incident light, reduced masses (AMU), force constants (mDyne/A),
 and normal coordinates:
                      1                      2                      3
                      A                      A                      A
 Frequencies --   -373.4115                16.5128                22.1647
 Red. masses --     11.2957                 4.5383                 4.5944
 Frc consts  --      0.9280                 0.0007                 0.0013
 IR Inten    --    687.5511                 1.4529                 1.6988
  Atom  AN      X      Y      Z        X      Y      Z        X      Y      Z
     1   6     0.04   0.01  -0.02     0.02   0.02   0.06     0.02  -0.02  -0.02
     2   6    -0.00   0.02   0.01     0.01   0.01   0.10     0.02  -0.01  -0.05
     3   6    -0.01   0.01   0.01    -0.01  -0.03   0.10    -0.00   0.04  -0.04
     4   6    -0.03  -0.00  -0.01    -0.02  -0.04   0.07    -0.01   0.06  -0.01
     5   6     0.01  -0.02  -0.04    -0.01  -0.03   0.03    -0.01   0.05   0.02
     6   6     0.09  -0.03  -0.07     0.01   0.00   0.03     0.01   0.00   0.01
     7   6     0.48  -0.28  -0.33     0.01   0.02  -0.01     0.01  -0.02   0.04
     8   8    -0.00  -0.02  -0.00     0.08   0.01  -0.10    -0.03   0.00   0.09
     9   8     0.01  -0.02  -0.00    -0.03   0.02  -0.13     0.07  -0.04   0.12
    10  16     0.05   0.05   0.02     0.01   0.01  -0.08     0.03  -0.02   0.08
    11   7    -0.02  -0.02  -0.08    -0.01   0.01  -0.04     0.06  -0.03   0.05
    12   6    -0.25   0.04   0.55     0.02   0.02   0.00     0.00   0.01  -0.01
    13   7    -0.15   0.08   0.14     0.01   0.01   0.00     0.01   0.02  -0.02
    14   6    -0.00   0.00  -0.01    -0.01   0.01  -0.02     0.02   0.01   0.00
    15   7    -0.11   0.14  -0.05     0.00  -0.01   0.01     0.02   0.03  -0.03
    16   6    -0.01  -0.00  -0.01     0.01  -0.01   0.01    -0.03   0.02  -0.03
    17   6    -0.02   0.00  -0.03     0.01   0.00  -0.00    -0.01   0.00   0.01
    18  15    -0.01   0.02  -0.00     0.01  -0.00  -0.00     0.00   0.02  -0.01
    19   6    -0.00   0.00   0.00     0.00   0.00   0.05     0.04   0.02   0.04
    20   6     0.00   0.00   0.00    -0.03   0.01   0.02     0.04   0.02   0.05
    21   6     0.00  -0.00   0.00    -0.07   0.02  -0.07     0.03   0.01   0.02
    22   6    -0.00  -0.00   0.00    -0.08   0.02  -0.14     0.01   0.01  -0.03
    23   6    -0.00  -0.00  -0.00    -0.05   0.02  -0.11     0.00   0.01  -0.03
    24   6    -0.01  -0.01  -0.00     0.02  -0.02   0.01    -0.05   0.05  -0.06
    25   6    -0.00  -0.00   0.00     0.03  -0.03   0.01    -0.08   0.06  -0.08
    26   6     0.00  -0.00  -0.00     0.03  -0.04   0.02    -0.09   0.04  -0.06
    27   6     0.00  -0.00  -0.01     0.03  -0.04   0.02    -0.06   0.01  -0.03
    28   6    -0.00  -0.00  -0.01     0.02  -0.02   0.01    -0.03   0.00  -0.01
    29   6    -0.02   0.01  -0.02     0.11   0.06  -0.13     0.05   0.03  -0.07
    30   6    -0.02   0.01  -0.01     0.10   0.06  -0.11     0.02   0.02  -0.04
    31   6    -0.01   0.01  -0.00     0.01   0.00   0.03    -0.08  -0.03   0.09
    32   6    -0.01  -0.00  -0.00    -0.09  -0.06   0.16    -0.14  -0.06   0.17
    33   6    -0.01  -0.01  -0.01    -0.08  -0.06   0.14    -0.11  -0.04   0.13
    34   1     0.07   0.02  -0.03     0.03   0.05   0.06     0.04  -0.06  -0.03
    35   1    -0.02   0.04   0.03     0.02   0.02   0.12     0.03  -0.03  -0.07
    36   1    -0.02   0.00   0.03    -0.01  -0.04   0.13    -0.00   0.05  -0.06
    37   1    -0.06  -0.01   0.00    -0.03  -0.07   0.07    -0.03   0.10   0.00
    38   1     0.21   0.04  -0.10     0.03   0.04  -0.02    -0.02  -0.03   0.05
    39   1     0.00   0.01   0.01     0.03  -0.00   0.12     0.05   0.02   0.07
    40   1     0.00   0.00   0.01    -0.02   0.01   0.07     0.06   0.02   0.08
    41   1     0.00  -0.00   0.00    -0.09   0.02  -0.09     0.03   0.01   0.02
    42   1     0.00  -0.00   0.00    -0.12   0.03  -0.21    -0.01   0.00  -0.06
    43   1    -0.00  -0.00  -0.01    -0.07   0.02  -0.17    -0.02   0.00  -0.07
    44   1    -0.02  -0.02   0.01     0.01  -0.01   0.00    -0.04   0.06  -0.08
    45   1    -0.00  -0.00   0.00     0.03  -0.04   0.01    -0.10   0.08  -0.11
    46   1     0.00   0.00  -0.00     0.04  -0.05   0.02    -0.11   0.05  -0.08
    47   1     0.01  -0.00  -0.01     0.03  -0.05   0.02    -0.07  -0.01  -0.01
    48   1    -0.00   0.00  -0.01     0.02  -0.02   0.02    -0.01  -0.02   0.02
    49   1    -0.02   0.01  -0.02     0.18   0.11  -0.24     0.12   0.07  -0.17
    50   1    -0.02   0.02  -0.00     0.17   0.10  -0.21     0.06   0.04  -0.10
    51   1    -0.00   0.01   0.00     0.00  -0.00   0.04    -0.10  -0.04   0.12
    52   1    -0.00  -0.00   0.00    -0.16  -0.10   0.27    -0.21  -0.10   0.27
    53   1    -0.01  -0.04  -0.02    -0.15  -0.10   0.24    -0.15  -0.07   0.20
    54   1     0.01  -0.04  -0.07    -0.02  -0.04   0.01    -0.02   0.07   0.04
    55   6    -0.04  -0.03  -0.02     0.01   0.01  -0.03     0.03  -0.03   0.01
    56   6    -0.00  -0.02  -0.01    -0.03   0.03  -0.01     0.05  -0.07  -0.02
    57   6    -0.01  -0.02  -0.00     0.03  -0.02   0.00     0.01   0.02  -0.02
    58   6     0.01  -0.01  -0.00    -0.04   0.03   0.03     0.05  -0.07  -0.07
    59   1    -0.01  -0.02  -0.01    -0.05   0.06  -0.03     0.05  -0.10  -0.00
    60   6     0.01  -0.01   0.00     0.02  -0.02   0.04     0.02   0.01  -0.07
    61   1    -0.04  -0.04  -0.01     0.06  -0.03  -0.01     0.00   0.05   0.00
    62   6     0.01  -0.01   0.00    -0.02  -0.00   0.06     0.03  -0.04  -0.10
    63   1     0.02  -0.00   0.00    -0.07   0.05   0.05     0.06  -0.11  -0.10
    64   1     0.01  -0.01   0.00     0.03  -0.05   0.06     0.00   0.04  -0.09
    65   6     0.01  -0.01   0.00    -0.04  -0.01   0.11     0.02  -0.05  -0.15
    66   1     0.01  -0.01   0.00     0.05   0.03   0.12     0.16   0.11  -0.19
    67   1     0.01  -0.02   0.01    -0.08  -0.03   0.22    -0.05  -0.12   0.04
    68   1     0.00  -0.01  -0.00    -0.10  -0.04   0.04    -0.06  -0.17  -0.34
                      4                      5                      6
                      A                      A                      A
 Frequencies --     26.1207                34.1121                40.0780
 Red. masses --      5.9956                 5.5680                 4.9800
 Frc consts  --      0.0024                 0.0038                 0.0047
 IR Inten    --      1.3830                 0.2154                 1.0478
  Atom  AN      X      Y      Z        X      Y      Z        X      Y      Z
     1   6    -0.05   0.03  -0.00     0.04  -0.04  -0.08     0.10  -0.01   0.06
     2   6    -0.05   0.03  -0.00     0.03  -0.03  -0.11     0.10  -0.02   0.08
     3   6    -0.03   0.03  -0.01     0.00   0.02  -0.10     0.06  -0.02   0.10
     4   6    -0.02   0.03  -0.01    -0.01   0.05  -0.06     0.01  -0.01   0.09
     5   6    -0.02   0.02  -0.01    -0.01   0.03  -0.04     0.01   0.00   0.07
     6   6    -0.03   0.02  -0.00     0.02  -0.01  -0.05     0.06   0.00   0.06
     7   6    -0.01   0.01  -0.01     0.01  -0.02  -0.02     0.05   0.01   0.04
     8   8     0.09  -0.07  -0.03    -0.06   0.01   0.03     0.07   0.01   0.02
     9   8     0.03  -0.03  -0.04    -0.03   0.06   0.05     0.05   0.03   0.01
    10  16     0.05  -0.04  -0.01    -0.04   0.03   0.03     0.06   0.01   0.02
    11   7     0.03  -0.02  -0.01    -0.01   0.01   0.00     0.08  -0.02   0.03
    12   6    -0.01   0.07  -0.04     0.01  -0.06   0.01     0.02   0.05  -0.03
    13   7    -0.00   0.08  -0.05     0.03  -0.04  -0.00     0.00   0.02  -0.07
    14   6     0.02   0.03   0.01     0.02  -0.00   0.04    -0.03   0.01  -0.04
    15   7     0.00   0.08  -0.06     0.05  -0.02  -0.02    -0.01   0.01  -0.08
    16   6    -0.02   0.02  -0.04    -0.00  -0.05  -0.02    -0.06   0.00  -0.07
    17   6    -0.05  -0.00  -0.07     0.07   0.00  -0.03    -0.01   0.03  -0.01
    18  15    -0.01   0.03  -0.04     0.03  -0.02  -0.00    -0.03   0.01  -0.05
    19   6     0.03   0.03   0.01     0.02  -0.01   0.11    -0.01   0.02  -0.03
    20   6     0.05   0.03   0.07     0.02   0.01   0.16    -0.01   0.01  -0.05
    21   6     0.08   0.03   0.12     0.01   0.04   0.14    -0.02  -0.00  -0.07
    22   6     0.07   0.03   0.12     0.01   0.04   0.07    -0.03  -0.01  -0.08
    23   6     0.05   0.03   0.06     0.01   0.02   0.01    -0.04  -0.00  -0.06
    24   6    -0.02   0.02  -0.05    -0.04  -0.02  -0.07    -0.07   0.01  -0.10
    25   6    -0.03   0.01  -0.06    -0.08  -0.01  -0.09    -0.09  -0.00  -0.11
    26   6    -0.03   0.00  -0.05    -0.09  -0.04  -0.06    -0.09  -0.02  -0.09
    27   6    -0.02  -0.00  -0.03    -0.06  -0.08  -0.01    -0.08  -0.03  -0.06
    28   6    -0.02   0.00  -0.03    -0.01  -0.09   0.02    -0.07  -0.02  -0.05
    29   6    -0.04  -0.06  -0.08     0.11   0.04  -0.09    -0.08   0.05   0.07
    30   6    -0.09  -0.10  -0.10     0.16   0.07  -0.13    -0.06   0.07   0.13
    31   6    -0.15  -0.08  -0.11     0.16   0.06  -0.10     0.03   0.07   0.09
    32   6    -0.17  -0.02  -0.10     0.12   0.01  -0.03     0.10   0.05  -0.01
    33   6    -0.11   0.02  -0.08     0.07  -0.02   0.00     0.08   0.03  -0.05
    34   1    -0.06   0.03   0.00     0.05  -0.08  -0.09     0.14  -0.01   0.05
    35   1    -0.06   0.04  -0.00     0.05  -0.05  -0.13     0.14  -0.03   0.09
    36   1    -0.04   0.03  -0.01    -0.00   0.03  -0.11     0.06  -0.03   0.11
    37   1    -0.01   0.02  -0.01    -0.03   0.08  -0.06    -0.03  -0.01   0.10
    38   1    -0.04   0.01   0.01     0.02  -0.04  -0.03     0.02   0.04   0.07
    39   1     0.01   0.03  -0.02     0.03  -0.03   0.13    -0.00   0.02  -0.02
    40   1     0.05   0.03   0.07     0.03   0.00   0.22     0.00   0.01  -0.04
    41   1     0.10   0.04   0.17     0.01   0.05   0.19    -0.02  -0.01  -0.08
    42   1     0.09   0.04   0.16    -0.00   0.06   0.05    -0.04  -0.02  -0.10
    43   1     0.04   0.03   0.06     0.00   0.03  -0.05    -0.05  -0.01  -0.07
    44   1    -0.02   0.03  -0.06    -0.03   0.00  -0.09    -0.06   0.02  -0.11
    45   1    -0.03   0.02  -0.07    -0.10   0.02  -0.13    -0.09   0.01  -0.13
    46   1    -0.03  -0.01  -0.05    -0.12  -0.03  -0.08    -0.10  -0.03  -0.09
    47   1    -0.02  -0.01  -0.02    -0.06  -0.10   0.02    -0.09  -0.05  -0.04
    48   1    -0.01  -0.00  -0.02     0.01  -0.11   0.06    -0.06  -0.02  -0.03
    49   1     0.01  -0.08  -0.07     0.12   0.06  -0.12    -0.15   0.05   0.11
    50   1    -0.08  -0.15  -0.11     0.20   0.11  -0.18    -0.11   0.09   0.20
    51   1    -0.19  -0.11  -0.13     0.20   0.08  -0.13     0.05   0.09   0.12
    52   1    -0.22  -0.00  -0.11     0.12  -0.00  -0.01     0.17   0.05  -0.04
    53   1    -0.13   0.07  -0.06     0.04  -0.06   0.05     0.13   0.01  -0.12
    54   1    -0.00   0.02  -0.01    -0.02   0.05  -0.02    -0.03   0.01   0.07
    55   6     0.06  -0.03   0.05    -0.07   0.01   0.04     0.02  -0.02   0.03
    56   6     0.01  -0.02   0.05    -0.10   0.00   0.03    -0.04  -0.05   0.01
    57   6     0.11  -0.04   0.09    -0.05   0.01   0.05     0.05  -0.02   0.05
    58   6     0.00  -0.02   0.10    -0.10  -0.00   0.05    -0.07  -0.07   0.02
    59   1    -0.04  -0.02   0.02    -0.11   0.00   0.02    -0.07  -0.05  -0.00
    60   6     0.11  -0.04   0.14    -0.05   0.01   0.06     0.01  -0.04   0.06
    61   1     0.16  -0.05   0.08    -0.03   0.01   0.05     0.09  -0.00   0.05
    62   6     0.05  -0.03   0.15    -0.08   0.00   0.06    -0.05  -0.07   0.05
    63   1    -0.04  -0.01   0.11    -0.12  -0.01   0.05    -0.12  -0.09   0.02
    64   1     0.14  -0.04   0.17    -0.04   0.01   0.07     0.04  -0.04   0.07
    65   6     0.05  -0.03   0.20    -0.08   0.00   0.08    -0.07  -0.09   0.05
    66   1     0.06  -0.06   0.22    -0.16  -0.08   0.09    -0.26  -0.25   0.08
    67   1     0.04  -0.01   0.20    -0.04   0.03  -0.03     0.02  -0.07  -0.16
    68   1     0.03  -0.00   0.22    -0.04   0.06   0.17    -0.00   0.02   0.24
                      7                      8                      9
                      A                      A                      A
 Frequencies --     43.2829                45.2837                55.9645
 Red. masses --      5.4413                 4.7783                 4.1477
 Frc consts  --      0.0060                 0.0058                 0.0077
 IR Inten    --      0.8772                 1.5178                 0.3235
  Atom  AN      X      Y      Z        X      Y      Z        X      Y      Z
     1   6    -0.04  -0.01   0.02     0.10  -0.10   0.03     0.05  -0.04   0.02
     2   6    -0.01  -0.03   0.02     0.13  -0.13   0.04     0.06  -0.05   0.04
     3   6     0.04  -0.07  -0.00     0.04  -0.12   0.07     0.02  -0.05   0.05
     4   6     0.07  -0.10  -0.02    -0.08  -0.08   0.08    -0.03  -0.03   0.05
     5   6     0.05  -0.08  -0.02    -0.11  -0.04   0.07    -0.04  -0.02   0.04
     6   6    -0.01  -0.03  -0.00    -0.02  -0.06   0.04     0.00  -0.02   0.03
     7   6    -0.03  -0.02  -0.00    -0.05  -0.03   0.02    -0.01  -0.01   0.01
     8   8    -0.08   0.00   0.02    -0.06  -0.01  -0.01     0.02  -0.01  -0.02
     9   8    -0.05   0.01   0.03    -0.08  -0.04  -0.03    -0.02  -0.02  -0.04
    10  16    -0.06   0.01   0.02    -0.07  -0.02  -0.01    -0.00  -0.02  -0.01
    11   7    -0.05   0.00   0.00    -0.09  -0.02   0.01    -0.01  -0.02   0.01
    12   6    -0.05  -0.04  -0.00    -0.05  -0.05   0.03    -0.01  -0.02   0.01
    13   7    -0.01  -0.00  -0.05    -0.02  -0.02   0.01    -0.01  -0.01   0.02
    14   6     0.03   0.04  -0.05     0.03  -0.01  -0.02     0.01   0.02  -0.01
    15   7     0.03   0.04  -0.09     0.00   0.01  -0.02    -0.00  -0.00   0.03
    16   6     0.02   0.01  -0.08    -0.00   0.03  -0.03     0.02   0.06   0.01
    17   6     0.02   0.04  -0.03    -0.00   0.00  -0.01     0.01   0.01   0.00
    18  15     0.02   0.04  -0.09     0.00   0.01  -0.02     0.01   0.02   0.01
    19   6     0.00   0.04  -0.11     0.07   0.01   0.01    -0.02   0.01  -0.08
    20   6     0.03   0.05  -0.04     0.09  -0.01   0.02    -0.00   0.01  -0.06
    21   6     0.08   0.06   0.07     0.08  -0.03   0.00     0.05   0.02   0.04
    22   6     0.11   0.07   0.12     0.05  -0.04  -0.03     0.08   0.02   0.12
    23   6     0.08   0.06   0.06     0.02  -0.03  -0.04     0.06   0.02   0.09
    24   6     0.07  -0.08  -0.06    -0.04   0.10  -0.05     0.04   0.04   0.04
    25   6     0.11  -0.16  -0.03    -0.06   0.13  -0.06     0.03   0.08   0.04
    26   6     0.09  -0.15  -0.03    -0.03   0.10  -0.05     0.02   0.15  -0.00
    27   6     0.03  -0.06  -0.06     0.01   0.04  -0.03     0.00   0.16  -0.04
    28   6    -0.00   0.02  -0.08     0.03   0.00  -0.02     0.00   0.12  -0.03
    29   6     0.00   0.07  -0.01    -0.01   0.00  -0.00     0.05   0.02  -0.05
    30   6    -0.03   0.06   0.09    -0.01   0.01  -0.00     0.06   0.02  -0.09
    31   6    -0.06   0.01   0.17     0.01   0.01  -0.01     0.02   0.01  -0.07
    32   6    -0.04  -0.02   0.15     0.01   0.01  -0.02    -0.02   0.01  -0.01
    33   6    -0.00  -0.00   0.05     0.01   0.01  -0.02    -0.03   0.01   0.03
    34   1    -0.08   0.02   0.03     0.17  -0.11   0.01     0.08  -0.04   0.02
    35   1    -0.04  -0.01   0.04     0.22  -0.17   0.03     0.10  -0.06   0.03
    36   1     0.06  -0.09   0.00     0.07  -0.15   0.08     0.03  -0.06   0.06
    37   1     0.12  -0.13  -0.04    -0.15  -0.07   0.11    -0.06  -0.03   0.06
    38   1    -0.03  -0.01  -0.00    -0.03  -0.01   0.02    -0.00  -0.00   0.02
    39   1    -0.04   0.02  -0.19     0.07   0.02   0.02    -0.05   0.01  -0.16
    40   1     0.00   0.04  -0.08     0.12   0.01   0.05    -0.03   0.01  -0.12
    41   1     0.10   0.07   0.12     0.11  -0.04   0.01     0.06   0.02   0.07
    42   1     0.15   0.08   0.21     0.04  -0.06  -0.04     0.11   0.03   0.20
    43   1     0.11   0.07   0.09    -0.01  -0.04  -0.06     0.08   0.03   0.14
    44   1     0.09  -0.09  -0.06    -0.06   0.12  -0.05     0.04  -0.01   0.07
    45   1     0.16  -0.23  -0.01    -0.09   0.18  -0.08     0.05   0.07   0.07
    46   1     0.12  -0.21  -0.01    -0.04   0.13  -0.06     0.02   0.18  -0.01
    47   1     0.01  -0.05  -0.06     0.03   0.02  -0.02    -0.01   0.21  -0.07
    48   1    -0.05   0.09  -0.10     0.06  -0.04  -0.00    -0.01   0.13  -0.06
    49   1     0.01   0.10  -0.07    -0.02   0.00   0.00     0.08   0.02  -0.07
    50   1    -0.05   0.08   0.11    -0.01   0.01   0.01     0.09   0.02  -0.14
    51   1    -0.09   0.00   0.26     0.01   0.01  -0.01     0.03   0.02  -0.10
    52   1    -0.06  -0.05   0.22     0.02   0.01  -0.03    -0.05   0.01   0.01
    53   1     0.01  -0.03   0.04     0.01   0.01  -0.03    -0.06   0.01   0.07
    54   1     0.07  -0.10  -0.04    -0.20  -0.01   0.08    -0.07  -0.01   0.04
    55   6    -0.06   0.01   0.01    -0.04  -0.00  -0.01    -0.00  -0.02  -0.00
    56   6    -0.05   0.01   0.01    -0.00   0.02   0.00     0.00  -0.00   0.01
    57   6    -0.05   0.02   0.02    -0.03   0.01  -0.01    -0.04  -0.05  -0.02
    58   6    -0.04   0.02   0.02     0.05   0.07   0.02    -0.04  -0.04  -0.00
    59   1    -0.05   0.00   0.01    -0.01   0.00   0.00     0.03   0.03   0.02
    60   6    -0.04   0.03   0.02     0.02   0.06   0.01    -0.08  -0.09  -0.03
    61   1    -0.06   0.01   0.02    -0.06  -0.01  -0.02    -0.04  -0.06  -0.02
    62   6    -0.03   0.03   0.02     0.07   0.09   0.02    -0.09  -0.09  -0.03
    63   1    -0.04   0.02   0.01     0.09   0.09   0.03    -0.04  -0.03  -0.00
    64   1    -0.03   0.04   0.02     0.03   0.07   0.01    -0.12  -0.13  -0.04
    65   6    -0.02   0.04   0.02     0.14   0.16   0.05    -0.16  -0.16  -0.06
    66   1     0.03   0.08   0.02     0.29   0.26   0.05    -0.34  -0.28  -0.05
    67   1    -0.05   0.04   0.08     0.05   0.19   0.20    -0.06  -0.19  -0.23
    68   1    -0.03   0.01  -0.02     0.12   0.07  -0.06    -0.13  -0.06   0.08
                     10                     11                     12
                      A                      A                      A
 Frequencies --     60.8214                64.5303                65.6015
 Red. masses --      4.1911                 5.8157                 4.9274
 Frc consts  --      0.0091                 0.0143                 0.0125
 IR Inten    --      0.4319                 1.4039                 0.1449
  Atom  AN      X      Y      Z        X      Y      Z        X      Y      Z
     1   6    -0.02  -0.00  -0.03     0.19  -0.08  -0.07    -0.01  -0.01  -0.01
     2   6    -0.01  -0.01  -0.03     0.24  -0.12  -0.08     0.04  -0.03  -0.03
     3   6    -0.01  -0.01  -0.03     0.20  -0.11  -0.07     0.08  -0.06  -0.04
     4   6    -0.01  -0.00  -0.03     0.10  -0.06  -0.04     0.08  -0.06  -0.05
     5   6    -0.01  -0.00  -0.03     0.05  -0.03  -0.04     0.04  -0.04  -0.03
     6   6    -0.02  -0.00  -0.02     0.09  -0.04  -0.05    -0.01  -0.01  -0.01
     7   6    -0.03   0.00  -0.02     0.03  -0.00  -0.04    -0.04   0.01  -0.01
     8   8     0.00  -0.03  -0.02    -0.00  -0.01   0.00    -0.02  -0.03   0.00
     9   8     0.00  -0.02  -0.02     0.04   0.02   0.02    -0.00  -0.03   0.01
    10  16     0.00  -0.02  -0.02     0.02  -0.00  -0.00    -0.01  -0.02   0.00
    11   7    -0.00  -0.01  -0.02     0.05  -0.01  -0.03    -0.02  -0.00  -0.01
    12   6    -0.04   0.02  -0.05    -0.02  -0.01  -0.10    -0.04   0.02  -0.03
    13   7    -0.05   0.02  -0.03    -0.03  -0.01  -0.04    -0.02   0.05   0.01
    14   6    -0.02   0.01  -0.03    -0.09   0.04   0.02     0.02   0.03   0.03
    15   7    -0.05   0.01  -0.01    -0.04  -0.01   0.02    -0.01   0.06   0.04
    16   6     0.01   0.02  -0.00    -0.03   0.00   0.03    -0.05   0.05   0.05
    17   6    -0.03   0.03  -0.02    -0.04   0.03   0.00    -0.04   0.06   0.04
    18  15    -0.04   0.02  -0.03    -0.05   0.02   0.02    -0.03   0.06   0.06
    19   6     0.06   0.03   0.12    -0.13   0.02   0.01     0.11   0.07   0.04
    20   6     0.12   0.03   0.19    -0.16   0.04   0.02     0.17   0.02  -0.01
    21   6     0.08   0.00   0.11    -0.15   0.08   0.05     0.13  -0.07  -0.08
    22   6    -0.01  -0.02  -0.05    -0.10   0.10   0.07     0.04  -0.12  -0.10
    23   6    -0.06  -0.01  -0.11    -0.07   0.08   0.05    -0.01  -0.06  -0.04
    24   6    -0.01   0.08   0.02    -0.03   0.01   0.04     0.02  -0.08   0.06
    25   6     0.05   0.07   0.05    -0.01  -0.02   0.06     0.02  -0.15   0.06
    26   6     0.14   0.00   0.06     0.02  -0.04   0.07    -0.07  -0.09   0.06
    27   6     0.17  -0.06   0.04     0.02  -0.04   0.06    -0.15   0.04   0.05
    28   6     0.11  -0.05   0.01    -0.01  -0.02   0.04    -0.14   0.10   0.05
    29   6    -0.07   0.05   0.02    -0.03   0.01  -0.01    -0.01   0.05   0.00
    30   6    -0.06   0.06   0.06    -0.04   0.01  -0.03     0.02   0.06  -0.07
    31   6    -0.02   0.05   0.06    -0.06   0.01  -0.03     0.01   0.08  -0.09
    32   6     0.01   0.03   0.02    -0.07   0.03  -0.02    -0.02   0.08  -0.04
    33   6     0.00   0.02  -0.02    -0.06   0.03   0.00    -0.05   0.07   0.02
    34   1    -0.02  -0.01  -0.03     0.23  -0.09  -0.08    -0.05   0.01  -0.00
    35   1    -0.00  -0.01  -0.04     0.33  -0.16  -0.10     0.04  -0.03  -0.03
    36   1    -0.00  -0.01  -0.04     0.25  -0.14  -0.07     0.12  -0.08  -0.06
    37   1    -0.01  -0.00  -0.03     0.07  -0.06  -0.04     0.12  -0.09  -0.06
    38   1    -0.05   0.01  -0.01    -0.00   0.03  -0.01    -0.05   0.01   0.00
    39   1     0.09   0.05   0.18    -0.14  -0.01  -0.02     0.13   0.14   0.08
    40   1     0.18   0.05   0.30    -0.20   0.02   0.01     0.24   0.06   0.01
    41   1     0.12   0.00   0.17    -0.17   0.10   0.06     0.17  -0.11  -0.12
    42   1    -0.04  -0.04  -0.11    -0.09   0.14   0.10     0.01  -0.19  -0.16
    43   1    -0.12  -0.03  -0.21    -0.03   0.10   0.07    -0.08  -0.10  -0.06
    44   1    -0.08   0.13   0.02    -0.05   0.02   0.04     0.08  -0.12   0.06
    45   1     0.02   0.12   0.07    -0.00  -0.02   0.07     0.08  -0.26   0.07
    46   1     0.18  -0.01   0.09     0.04  -0.06   0.08    -0.07  -0.15   0.06
    47   1     0.24  -0.12   0.05     0.04  -0.06   0.06    -0.21   0.09   0.04
    48   1     0.14  -0.10  -0.01    -0.01  -0.02   0.03    -0.19   0.20   0.04
    49   1    -0.10   0.06   0.02    -0.02   0.01  -0.01     0.00   0.04   0.01
    50   1    -0.09   0.07   0.10    -0.03  -0.00  -0.05     0.05   0.06  -0.10
    51   1    -0.02   0.05   0.10    -0.06   0.01  -0.05     0.04   0.09  -0.15
    52   1     0.04   0.02   0.01    -0.09   0.03  -0.02    -0.02   0.09  -0.06
    53   1     0.03   0.00  -0.06    -0.08   0.05   0.02    -0.07   0.08   0.05
    54   1    -0.01   0.00  -0.02    -0.02   0.00  -0.02     0.05  -0.04  -0.03
    55   6     0.01  -0.02  -0.00     0.02  -0.00  -0.00     0.00  -0.01   0.00
    56   6     0.03   0.01   0.01     0.04   0.01   0.01    -0.01  -0.03  -0.01
    57   6    -0.03  -0.05  -0.02    -0.00  -0.02  -0.01     0.02   0.01   0.01
    58   6     0.01  -0.01   0.01     0.05   0.02   0.01    -0.02  -0.03  -0.01
    59   1     0.06   0.04   0.02     0.05   0.02   0.01    -0.03  -0.04  -0.01
    60   6    -0.05  -0.07  -0.02     0.01  -0.01  -0.01     0.02   0.01   0.01
    61   1    -0.04  -0.07  -0.03    -0.02  -0.03  -0.02     0.03   0.02   0.02
    62   6    -0.03  -0.05  -0.01     0.04   0.01   0.00     0.00  -0.01  -0.00
    63   1     0.03   0.01   0.02     0.07   0.03   0.02    -0.03  -0.04  -0.02
    64   1    -0.08  -0.10  -0.04    -0.00  -0.02  -0.01     0.03   0.02   0.01
    65   6    -0.07  -0.09  -0.03     0.05   0.02   0.01    -0.00  -0.02  -0.00
    66   1    -0.22  -0.19  -0.03     0.13   0.09   0.01    -0.01  -0.02  -0.00
    67   1     0.01  -0.09  -0.19     0.01   0.02   0.10     0.00  -0.02  -0.01
    68   1    -0.02  -0.00   0.09     0.02  -0.02  -0.06    -0.00  -0.01   0.00
                     13                     14                     15
                      A                      A                      A
 Frequencies --     72.9858                85.3075                92.3507
 Red. masses --      4.4673                 4.1302                 4.0445
 Frc consts  --      0.0140                 0.0177                 0.0203
 IR Inten    --      0.1993                 0.0942                 0.1912
  Atom  AN      X      Y      Z        X      Y      Z        X      Y      Z
     1   6     0.04  -0.07  -0.04     0.07  -0.01  -0.01    -0.12   0.07   0.06
     2   6     0.04  -0.06  -0.05     0.02   0.01   0.02    -0.08   0.03   0.07
     3   6    -0.02  -0.02  -0.03    -0.06   0.03   0.05     0.10  -0.09   0.01
     4   6    -0.06   0.02   0.00    -0.08   0.03   0.04     0.22  -0.17  -0.06
     5   6    -0.05   0.01   0.01    -0.03   0.01   0.00     0.16  -0.13  -0.07
     6   6    -0.00  -0.03  -0.01     0.04  -0.00  -0.02     0.01  -0.02  -0.01
     7   6    -0.00  -0.03  -0.00     0.03   0.00  -0.03     0.00  -0.01  -0.02
     8   8    -0.03  -0.01   0.00    -0.02   0.00   0.01    -0.02  -0.01   0.00
     9   8    -0.04  -0.01  -0.00     0.03   0.04   0.03    -0.00  -0.00   0.01
    10  16    -0.03  -0.01   0.00     0.01   0.02   0.01    -0.01  -0.01  -0.00
    11   7    -0.04  -0.01   0.00     0.03   0.01  -0.03    -0.00  -0.00  -0.01
    12   6     0.02  -0.05   0.04     0.03  -0.02  -0.04     0.00  -0.02   0.01
    13   7     0.07   0.01   0.04     0.00  -0.05  -0.03     0.01  -0.01   0.01
    14   6     0.07   0.07   0.04    -0.03  -0.02  -0.04     0.00   0.01   0.01
    15   7     0.11   0.05   0.02    -0.01  -0.06  -0.01     0.01  -0.01   0.01
    16   6     0.07   0.01   0.03     0.01  -0.01  -0.02     0.02   0.00   0.01
    17   6     0.07   0.03   0.01     0.01  -0.03  -0.02     0.02  -0.01  -0.00
    18  15     0.10   0.05   0.03    -0.00  -0.03  -0.03     0.02  -0.01   0.01
    19   6     0.06   0.06   0.08    -0.00  -0.02   0.08     0.00  -0.00   0.06
    20   6    -0.01   0.07   0.00     0.01   0.00   0.16    -0.02   0.01   0.08
    21   6    -0.06   0.09  -0.11    -0.01   0.02   0.11    -0.04   0.04   0.03
    22   6    -0.04   0.10  -0.13    -0.05   0.02  -0.03    -0.04   0.04  -0.04
    23   6     0.03   0.09  -0.06    -0.06   0.00  -0.09    -0.02   0.03  -0.04
    24   6     0.07  -0.00  -0.02     0.09  -0.13   0.04    -0.01   0.04  -0.02
    25   6     0.03  -0.02  -0.03     0.09  -0.12   0.04    -0.06   0.11  -0.05
    26   6    -0.01  -0.03  -0.01    -0.01   0.04  -0.04    -0.09   0.14  -0.06
    27   6    -0.01  -0.01   0.03    -0.10   0.17  -0.10    -0.05   0.08  -0.03
    28   6     0.03   0.01   0.05    -0.08   0.13  -0.09    -0.00   0.02   0.00
    29   6     0.04  -0.07   0.05    -0.01  -0.03   0.00     0.01  -0.02   0.01
    30   6    -0.06  -0.14   0.07    -0.03  -0.04   0.03    -0.00  -0.03   0.02
    31   6    -0.12  -0.11   0.02    -0.02  -0.04   0.02    -0.01  -0.03   0.02
    32   6    -0.08   0.00  -0.04     0.01  -0.03  -0.01     0.00  -0.01  -0.00
    33   6     0.02   0.07  -0.05     0.02  -0.03  -0.03     0.02  -0.00  -0.01
    34   1     0.09  -0.10  -0.05     0.12  -0.02  -0.03    -0.25   0.17   0.10
    35   1     0.08  -0.08  -0.07     0.05   0.01   0.03    -0.19   0.10   0.13
    36   1    -0.02  -0.01  -0.03    -0.10   0.04   0.08     0.14  -0.13   0.01
    37   1    -0.10   0.05   0.02    -0.14   0.04   0.06     0.35  -0.28  -0.11
    38   1     0.02  -0.05  -0.02     0.04   0.01  -0.03     0.01  -0.01  -0.02
    39   1     0.09   0.04   0.15     0.01  -0.03   0.12     0.02  -0.02   0.10
    40   1    -0.02   0.06   0.03     0.04   0.00   0.26    -0.02   0.01   0.13
    41   1    -0.11   0.09  -0.18    -0.00   0.04   0.17    -0.06   0.05   0.04
    42   1    -0.07   0.12  -0.22    -0.07   0.04  -0.07    -0.06   0.06  -0.08
    43   1     0.04   0.10  -0.08    -0.08   0.00  -0.18    -0.02   0.04  -0.09
    44   1     0.09   0.00  -0.04     0.16  -0.23   0.09     0.00   0.03  -0.01
    45   1     0.03  -0.04  -0.07     0.16  -0.22   0.10    -0.09   0.15  -0.07
    46   1    -0.04  -0.04  -0.02    -0.02   0.07  -0.04    -0.14   0.20  -0.09
    47   1    -0.04  -0.01   0.05    -0.18   0.30  -0.17    -0.07   0.10  -0.04
    48   1     0.03   0.02   0.08    -0.15   0.22  -0.14     0.02  -0.01   0.02
    49   1     0.08  -0.11   0.09    -0.02  -0.03   0.01     0.02  -0.03   0.01
    50   1    -0.09  -0.23   0.11    -0.04  -0.04   0.05    -0.01  -0.05   0.03
    51   1    -0.19  -0.16   0.04    -0.03  -0.04   0.04    -0.03  -0.04   0.03
    52   1    -0.12   0.04  -0.08     0.02  -0.03  -0.02    -0.00  -0.01  -0.01
    53   1     0.04   0.16  -0.08     0.03  -0.02  -0.05     0.03   0.01  -0.02
    54   1    -0.08   0.03   0.03    -0.04   0.00  -0.01     0.22  -0.18  -0.12
    55   6    -0.03  -0.00   0.00     0.01   0.01   0.01    -0.01  -0.00  -0.00
    56   6    -0.05  -0.02  -0.01     0.05   0.05   0.03     0.01   0.01   0.00
    57   6    -0.00   0.01   0.01    -0.04  -0.02  -0.01    -0.02  -0.01  -0.01
    58   6    -0.06  -0.03  -0.01     0.05   0.05   0.02     0.01   0.01   0.01
    59   1    -0.06  -0.03  -0.01     0.08   0.07   0.04     0.01   0.01   0.01
    60   6    -0.01   0.01   0.01    -0.03  -0.02  -0.01    -0.01  -0.01  -0.00
    61   1     0.01   0.03   0.02    -0.07  -0.04  -0.02    -0.03  -0.02  -0.01
    62   6    -0.05  -0.02  -0.00     0.01   0.02   0.00     0.00   0.00   0.00
    63   1    -0.08  -0.04  -0.02     0.09   0.08   0.04     0.02   0.02   0.01
    64   1    -0.00   0.02   0.02    -0.06  -0.04  -0.03    -0.02  -0.02  -0.01
    65   6    -0.07  -0.04  -0.02     0.03   0.03   0.00     0.01   0.01  -0.00
    66   1    -0.27  -0.20   0.00     0.05   0.05   0.00    -0.07  -0.06   0.01
    67   1     0.03  -0.02  -0.25     0.02   0.05   0.02     0.04   0.03  -0.09
    68   1     0.01   0.08   0.17     0.04   0.02  -0.01     0.05   0.05   0.08
                     16                     17                     18
                      A                      A                      A
 Frequencies --     96.6140               101.3751               106.9517
 Red. masses --      6.7578                 2.3051                 1.6766
 Frc consts  --      0.0372                 0.0140                 0.0113
 IR Inten    --      0.2699                 0.4932                 1.7384
  Atom  AN      X      Y      Z        X      Y      Z        X      Y      Z
     1   6    -0.06  -0.04   0.02     0.00   0.01   0.00    -0.00  -0.01   0.01
     2   6     0.05  -0.04  -0.13    -0.00   0.01   0.02    -0.02   0.01   0.00
     3   6     0.16   0.03  -0.16    -0.01   0.01   0.02    -0.01   0.02  -0.00
     4   6     0.14   0.12  -0.04    -0.02   0.00   0.01     0.01   0.01   0.00
     5   6     0.03   0.12   0.10    -0.01   0.00  -0.00     0.02  -0.00   0.01
     6   6    -0.06   0.04   0.13    -0.00   0.01  -0.01     0.01  -0.01   0.01
     7   6    -0.08   0.02   0.19    -0.00   0.01  -0.01     0.01  -0.01   0.02
     8   8     0.19   0.07  -0.05     0.00  -0.01  -0.00     0.03   0.01  -0.01
     9   8    -0.12  -0.12  -0.18     0.01  -0.00   0.00    -0.01   0.01  -0.02
    10  16     0.00  -0.00  -0.01     0.01   0.01   0.00     0.01   0.00  -0.00
    11   7    -0.12   0.02   0.17    -0.02   0.02  -0.01     0.02  -0.01   0.01
    12   6    -0.08  -0.02   0.21    -0.01  -0.01   0.00     0.00  -0.02  -0.00
    13   7    -0.06  -0.02   0.10    -0.00  -0.01   0.00     0.01  -0.01  -0.00
    14   6    -0.02  -0.01  -0.03     0.01   0.00   0.01     0.01   0.02   0.00
    15   7    -0.04  -0.01  -0.00     0.01  -0.00   0.00     0.02   0.00   0.01
    16   6     0.01  -0.03  -0.02    -0.01  -0.00  -0.00     0.00   0.01  -0.00
    17   6     0.01  -0.01  -0.04     0.00   0.01   0.01     0.01   0.01   0.01
    18  15    -0.00  -0.02  -0.03     0.00   0.01   0.00     0.01   0.02   0.00
    19   6    -0.02  -0.02   0.01     0.00   0.00  -0.02     0.01   0.02   0.00
    20   6    -0.02  -0.01   0.06     0.01  -0.00  -0.03     0.01   0.02  -0.01
    21   6    -0.03   0.02   0.05     0.01  -0.01  -0.02     0.01   0.01  -0.02
    22   6    -0.03   0.02  -0.00     0.02  -0.01   0.01     0.01   0.01  -0.01
    23   6    -0.02   0.01  -0.04     0.01  -0.00   0.02     0.01   0.02  -0.00
    24   6     0.03  -0.06  -0.01    -0.02   0.00  -0.04    -0.00   0.01  -0.02
    25   6     0.02  -0.05  -0.02    -0.04  -0.03  -0.05    -0.02  -0.00  -0.03
    26   6    -0.02  -0.01  -0.04    -0.05  -0.06  -0.02    -0.02  -0.02  -0.01
    27   6    -0.04   0.03  -0.05    -0.04  -0.06   0.02    -0.02  -0.02   0.01
    28   6    -0.03   0.02  -0.04    -0.02  -0.03   0.03    -0.01  -0.01   0.02
    29   6    -0.01   0.00  -0.02     0.02   0.01  -0.01    -0.00  -0.01   0.03
    30   6    -0.01   0.00   0.03     0.01   0.00  -0.02    -0.01  -0.01   0.02
    31   6    -0.00  -0.01   0.04    -0.01  -0.01   0.00     0.00   0.01  -0.02
    32   6     0.02  -0.02   0.01    -0.03  -0.00   0.02     0.01   0.02  -0.04
    33   6     0.02  -0.03  -0.02    -0.02   0.00   0.02     0.02   0.03  -0.02
    34   1    -0.13  -0.11   0.03     0.01   0.02   0.00    -0.01  -0.01   0.01
    35   1     0.07  -0.11  -0.23    -0.00   0.02   0.02    -0.04   0.01  -0.00
    36   1     0.25   0.02  -0.27    -0.02   0.01   0.03    -0.02   0.03  -0.00
    37   1     0.21   0.19  -0.06    -0.03  -0.00   0.01     0.02   0.02   0.00
    38   1    -0.05   0.00   0.17     0.01   0.01  -0.02     0.01  -0.01   0.02
    39   1    -0.02  -0.04   0.02     0.00   0.01  -0.03     0.02   0.02   0.01
    40   1    -0.02  -0.01   0.09     0.00  -0.00  -0.06     0.01   0.02  -0.01
    41   1    -0.03   0.03   0.09     0.01  -0.01  -0.04     0.01   0.01  -0.03
    42   1    -0.03   0.04  -0.01     0.02  -0.02   0.02     0.01   0.01  -0.02
    43   1    -0.02   0.02  -0.07     0.02  -0.01   0.04     0.01   0.01   0.00
    44   1     0.06  -0.09  -0.00    -0.01   0.03  -0.06     0.00   0.02  -0.04
    45   1     0.03  -0.08  -0.02    -0.05  -0.03  -0.08    -0.02  -0.00  -0.05
    46   1    -0.04   0.00  -0.05    -0.06  -0.09  -0.02    -0.03  -0.04  -0.01
    47   1    -0.07   0.07  -0.06    -0.05  -0.09   0.05    -0.02  -0.04   0.03
    48   1    -0.05   0.05  -0.04    -0.02  -0.03   0.06    -0.00  -0.01   0.03
    49   1    -0.02   0.01  -0.03     0.03   0.01  -0.03    -0.01  -0.02   0.05
    50   1    -0.03   0.02   0.05     0.02   0.00  -0.03    -0.02  -0.03   0.03
    51   1    -0.01  -0.01   0.07    -0.02  -0.01   0.00    -0.00   0.00  -0.03
    52   1     0.03  -0.03   0.02    -0.04  -0.01   0.04     0.02   0.04  -0.06
    53   1     0.03  -0.04  -0.04    -0.03   0.00   0.03     0.02   0.04  -0.03
    54   1     0.03   0.17   0.19    -0.01  -0.00  -0.01     0.03  -0.00   0.01
    55   6     0.05   0.02   0.00     0.03   0.02   0.01    -0.01  -0.01   0.01
    56   6     0.05   0.02   0.00     0.13   0.10   0.06     0.04   0.04   0.04
    57   6     0.03   0.01  -0.00    -0.06  -0.05  -0.03    -0.08  -0.07  -0.02
    58   6     0.04   0.01  -0.00     0.14   0.11   0.06     0.03   0.03   0.04
    59   1     0.06   0.02   0.01     0.20   0.16   0.09     0.09   0.08   0.06
    60   6     0.02   0.00  -0.01    -0.07  -0.06  -0.04    -0.09  -0.08  -0.02
    61   1     0.03   0.01  -0.00    -0.13  -0.11  -0.05    -0.11  -0.10  -0.03
    62   6     0.02  -0.00  -0.01     0.03   0.02   0.00    -0.03  -0.03   0.01
    63   1     0.04   0.01  -0.01     0.22   0.17   0.09     0.08   0.08   0.06
    64   1     0.01  -0.01  -0.02    -0.15  -0.12  -0.07    -0.14  -0.12  -0.04
    65   6     0.00  -0.02  -0.03     0.02   0.01  -0.02    -0.04  -0.03   0.02
    66   1    -0.06  -0.06  -0.03    -0.31  -0.26   0.01     0.35   0.30  -0.02
    67   1     0.04  -0.03  -0.09     0.19   0.09  -0.43    -0.23  -0.14   0.50
    68   1     0.02   0.01   0.01     0.20   0.21   0.32    -0.25  -0.26  -0.39
[...]
 Vib (Bot)   17  0.168598D+01          0.226852          0.522346
 Vib (Bot)   18  0.151558D+01          0.180578          0.415795
 Vib (Bot)   19  0.113204D+01          0.053861          0.124019
 Vib (Bot)   20  0.104696D+01          0.019932          0.045894
 Vib (Bot)   21  0.101540D+01          0.006639          0.015287
 Vib (Bot)   22  0.956252D+00         -0.019428         -0.044734
 Vib (Bot)   23  0.849092D+00         -0.071045         -0.163587
 Vib (Bot)   24  0.798777D+00         -0.097575         -0.224674
 Vib (Bot)   25  0.767334D+00         -0.115016         -0.264833
 Vib (Bot)   26  0.695940D+00         -0.157428         -0.362492
 Vib (Bot)   27  0.667846D+00         -0.175324         -0.403698
 Vib (Bot)   28  0.630202D+00         -0.200520         -0.461715
 Vib (Bot)   29  0.607893D+00         -0.216173         -0.497757
 Vib (Bot)   30  0.582135D+00         -0.234976         -0.541053
 Vib (Bot)   31  0.551191D+00         -0.258698         -0.595674
 Vib (Bot)   32  0.537811D+00         -0.269370         -0.620248
 Vib (Bot)   33  0.528941D+00         -0.276593         -0.636879
 Vib (Bot)   34  0.468767D+00         -0.329043         -0.757650
 Vib (Bot)   35  0.430560D+00         -0.365966         -0.842668
 Vib (Bot)   36  0.408206D+00         -0.389121         -0.895983
 Vib (Bot)   37  0.376727D+00         -0.423973         -0.976234
 Vib (Bot)   38  0.368810D+00         -0.433197         -0.997473
 Vib (Bot)   39  0.361741D+00         -0.441602         -1.016826
 Vib (Bot)   40  0.355092D+00         -0.449659         -1.035377
 Vib (Bot)   41  0.349030D+00         -0.457137         -1.052598
 Vib (Bot)   42  0.345767D+00         -0.461217         -1.061991
 Vib (Bot)   43  0.334208D+00         -0.475983         -1.095993
 Vib (Bot)   44  0.323560D+00         -0.490045         -1.128371
 Vib (Bot)   45  0.301179D+00         -0.521176         -1.200052
 Vib (Bot)   46  0.293914D+00         -0.531779         -1.224467
 Vib (Bot)   47  0.280814D+00         -0.551581         -1.270063
 Vib (Bot)   48  0.270602D+00         -0.567669         -1.307107
 Vib (Bot)   49  0.255662D+00         -0.592334         -1.363900
 Vib (Bot)   50  0.243526D+00         -0.613454         -1.412530
 Vib (Bot)   51  0.241572D+00         -0.616953         -1.420586
 Vib (V=0)       0.896110D+14         13.952361         32.126500
 Vib (V=0)    1  0.115837D+02          1.063848          2.449600
 Vib (V=0)    2  0.876187D+01          0.942597          2.170410
 Vib (V=0)    3  0.751395D+01          0.875868          2.016761
 Vib (V=0)    4  0.587722D+01          0.769172          1.771084
 Vib (V=0)    5  0.508181D+01          0.706018          1.625667
 Vib (V=0)    6  0.474536D+01          0.676269          1.557167
 Vib (V=0)    7  0.455956D+01          0.658923          1.517226
 Vib (V=0)    8  0.379357D+01          0.579048          1.333308
 Vib (V=0)    9  0.353480D+01          0.548365          1.262657
 Vib (V=0)   10  0.336364D+01          0.526810          1.213025
 Vib (V=0)   11  0.331785D+01          0.520857          1.199316
 Vib (V=0)   12  0.303911D+01          0.482747          1.111565
 Vib (V=0)   13  0.268272D+01          0.428575          0.986831
 Vib (V=0)   14  0.252238D+01          0.401810          0.925201
 Vib (V=0)   15  0.243690D+01          0.386838          0.890727
 Vib (V=0)   16  0.235013D+01          0.371092          0.854470
 Vib (V=0)   17  0.225856D+01          0.353831          0.814726
 Vib (V=0)   18  0.209592D+01          0.321375          0.739994
 Vib (V=0)   19  0.173754D+01          0.239935          0.552471
 Vib (V=0)   20  0.166023D+01          0.220168          0.506956
 Vib (V=0)   21  0.163183D+01          0.212676          0.489704
 Vib (V=0)   22  0.157908D+01          0.198405          0.456844
 Vib (V=0)   23  0.148537D+01          0.171835          0.395665
 Vib (V=0)   24  0.144236D+01          0.159074          0.366281
 Vib (V=0)   25  0.141586D+01          0.151021          0.347738
 Vib (V=0)   26  0.135693D+01          0.132558          0.305226
 Vib (V=0)   27  0.133428D+01          0.125246          0.288389
 Vib (V=0)   28  0.130446D+01          0.115431          0.265789
 Vib (V=0)   29  0.128710D+01          0.109614          0.252395
 Vib (V=0)   30  0.126739D+01          0.102909          0.236956
 Vib (V=0)   31  0.124418D+01          0.094885          0.218481
 Vib (V=0)   32  0.123433D+01          0.091431          0.210528
 Vib (V=0)   33  0.122786D+01          0.089148          0.205272
 Vib (V=0)   34  0.118538D+01          0.073857          0.170061
 Vib (V=0)   35  0.115983D+01          0.064396          0.148278
 Vib (V=0)   36  0.114547D+01          0.058984          0.135815
 Vib (V=0)   37  0.112604D+01          0.051553          0.118705
 Vib (V=0)   38  0.112131D+01          0.049724          0.114494
 Vib (V=0)   39  0.111714D+01          0.048106          0.110768
 Vib (V=0)   40  0.111326D+01          0.046597          0.107295
 Vib (V=0)   41  0.110977D+01          0.045234          0.104155
 Vib (V=0)   42  0.110791D+01          0.044505          0.102475
 Vib (V=0)   43  0.110141D+01          0.041949          0.096592
 Vib (V=0)   44  0.109556D+01          0.039636          0.091265
 Vib (V=0)   45  0.108370D+01          0.034910          0.080383
 Vib (V=0)   46  0.107999D+01          0.033419          0.076950
 Vib (V=0)   47  0.107346D+01          0.030786          0.070887
 Vib (V=0)   48  0.106853D+01          0.028786          0.066283
 Vib (V=0)   49  0.106157D+01          0.025949          0.059751
 Vib (V=0)   50  0.105615D+01          0.023726          0.054632
 Vib (V=0)   51  0.105530D+01          0.023376          0.053824
 Electronic      0.100000D+01          0.000000          0.000000
 Translational   0.382393D+09          8.582510         19.761960
 Rotational      0.290002D+08          7.462401         17.182813
 ***** Axes restored to original set *****
 -------------------------------------------------------------------
 Center     Atomic                   Forces (Hartrees/Bohr)
 Number     Number              X              Y              Z
 -------------------------------------------------------------------
      1        6           0.000000831    0.000000301    0.000000736
      2        6           0.000000669    0.000000080    0.000001434
      3        6           0.000000049   -0.000000185    0.000001483
      4        6          -0.000000455   -0.000000336    0.000000907
      5        6          -0.000000363   -0.000000000    0.000000188
      6        6           0.000000505    0.000000180    0.000000524
      7        6           0.000000526    0.000000560    0.000000073
      8        8           0.000001212    0.000000942   -0.000001199
      9        8           0.000000533   -0.000000009   -0.000001522
     10       16           0.000000822    0.000000462   -0.000001653
     11        7          -0.000000087    0.000000784   -0.000001057
     12        6           0.000001145    0.000000096   -0.000000360
     13        7           0.000001248   -0.000000268    0.000000224
     14        6          -0.000000113   -0.000000137    0.000001227
     15        7           0.000000576    0.000000779    0.000000108
     16        6          -0.000000412   -0.000000254    0.000000167
     17        6          -0.000000202   -0.000000170    0.000000162
     18       15           0.000000005   -0.000000164    0.000000072
     19        6           0.000000340   -0.000000120    0.000001471
     20        6           0.000000115   -0.000000190    0.000002055
     21        6           0.000000699   -0.000000314    0.000002313
     22        6           0.000000181   -0.000000132    0.000002181
     23        6           0.000000205   -0.000000025    0.000001397
     24        6          -0.000000450   -0.000000351   -0.000000076
     25        6          -0.000000529   -0.000000491   -0.000000082
     26        6          -0.000001208   -0.000000534   -0.000000332
     27        6          -0.000001546   -0.000000450    0.000000079
     28        6          -0.000000918   -0.000000800    0.000000538
     29        6          -0.000000663   -0.000000386    0.000000473
     30        6          -0.000000825   -0.000000409    0.000000305
     31        6          -0.000000658   -0.000000281   -0.000000197
     32        6          -0.000000121   -0.000000180   -0.000000299
     33        6           0.000000050   -0.000000203   -0.000000232
     34        1           0.000001325    0.000000518    0.000000860
     35        1           0.000000857    0.000000120    0.000001848
     36        1          -0.000000169   -0.000000421    0.000001856
     37        1          -0.000000641   -0.000000586    0.000000968
     38        1           0.000001177    0.000000415   -0.000000239
     39        1           0.000000492   -0.000000411    0.000000977
     40        1           0.000000442   -0.000000245    0.000002243
     41        1           0.000000529   -0.000000232    0.000002875
     42        1           0.000000502   -0.000000162    0.000002411
     43        1           0.000000103   -0.000000174    0.000001455
     44        1          -0.000000125   -0.000000353   -0.000000563
     45        1          -0.000000843   -0.000000270   -0.000001200
     46        1          -0.000001646   -0.000000730   -0.000000506
     47        1          -0.000001696   -0.000000886    0.000000531
     48        1          -0.000001033   -0.000000773    0.000000731
     49        1          -0.000000685   -0.000000542    0.000001100
     50        1          -0.000001272   -0.000000679    0.000000541
     51        1          -0.000000838   -0.000000352   -0.000000299
     52        1           0.000000021    0.000000145   -0.000000813
     53        1           0.000000332    0.000001266   -0.000000687
     54        1          -0.000000603    0.000000816   -0.000000102
     55        6           0.000000531    0.000000534   -0.000001508
     56        6          -0.000000028    0.000000758   -0.000002118
     57        6           0.000000956    0.000000613   -0.000001254
     58        6          -0.000000068    0.000000163   -0.000002021
     59        1          -0.000000130    0.000000278   -0.000002091
     60        6           0.000000251    0.000000314   -0.000001544
     61        1           0.000001255    0.000000855   -0.000001298
     62        6           0.000000108    0.000000346   -0.000001807
     63        1          -0.000000606    0.000000088   -0.000002209
     64        1           0.000000905    0.000000834   -0.000001343
     65        6          -0.000000173    0.000000235   -0.000002052
     66        1           0.000000279    0.000000451   -0.000001938
     67        1          -0.000000307    0.000000086   -0.000001569
     68        1          -0.000000365    0.000000187   -0.000002344
 -------------------------------------------------------------------
 Cartesian Forces:  Max     0.000002875 RMS     0.000000909
 FormGI is forming the generalized inverse of G from B-inverse, IUseBI=4.

 ----------------------------------------------------------------------

 Electric dipole moment (input orientation):
 (Debye = 10**-18 statcoulomb cm , SI units = C m)
                  (au)            (Debye)         (10**-30 SI)
   Tot        0.803356D+01      0.204193D+02      0.681114D+02
   x          0.669480D+01      0.170165D+02      0.567609D+02
   y         -0.311668D+01     -0.792182D+01     -0.264244D+02
   z          0.316292D+01      0.803934D+01      0.268164D+02

 Dipole polarizability, Alpha (input orientation).
 (esu units = cm**3 , SI units = C**2 m**2 J**-1)
 Alpha(0;0):
               (au)            (10**-24 esu)      (10**-40 SI)
   iso        0.499103D+03      0.739595D+02      0.822910D+02
   aniso      0.126196D+03      0.187003D+02      0.208069D+02
   xx         0.519470D+03      0.769775D+02      0.856490D+02
   yx         0.824267D+01      0.122144D+01      0.135903D+01
   yy         0.559124D+03      0.828536D+02      0.921870D+02
   zx        -0.859054D+00     -0.127299D+00     -0.141639D+00
   zy         0.385152D+00      0.570736D-01      0.635030D-01
   zz         0.418717D+03      0.620474D+02      0.690370D+02

 ----------------------------------------------------------------------

 Dipole orientation:
     6          3.62479161          6.66126700         -3.64280975
     6          3.71634209          8.77217052         -2.07806897
     6          1.55282318          9.55412458         -0.79262801
     6         -0.69923179          8.21996542         -1.08596070
     6         -0.79346135          6.11277515         -2.65690747
     6          1.36986524          5.32667786         -3.94229916
     6          1.30540264          3.01950463         -5.60173329
     8          1.28027323         -0.60231459         -9.54315302
     8         -3.29802840          0.54323398        -10.06248766
    16         -1.17382692         -0.01134160         -8.37301736
     7         -1.00492743          2.22698218         -6.27880386
     6          2.74123782          0.74758687         -3.25016571
     7          2.30854449         -0.51377953         -1.49351977
     6          2.65696293          1.59748738          4.35368989
     7          1.85561031         -2.05841418          0.39206091
     6         -2.24790992          1.09155089          1.91851679
     6         -0.26934065         -3.14715618          4.92831034
    15          0.56807618         -0.61934531          2.82088824
     6          3.04271085          3.95823815          3.21374175
     6          4.82171957          5.61333614          4.21066665
     6          6.21635425          4.92728238          6.33566320
     6          5.84755682          2.57639962          7.46207119
     6          4.08203389          0.90186464          6.46899967
     6         -3.60050937          0.20040039         -0.16770353
     6         -5.82921364          1.39221583         -0.88267169
     6         -6.70731527          3.46791862          0.47643227
     6         -5.36257545          4.35477991          2.56101424
     6         -3.13206609          3.17215095          3.28845744
     6         -1.24633351         -2.58819444          7.32025347
     6         -2.01732700         -4.54080152          8.89874041
     6         -1.83182308         -7.04008683          8.08740224
     6         -0.87524075         -7.59282354          5.69871208
     6         -0.09168055         -5.65091460          4.10829092
     1          5.31614223          6.03345532         -4.62550546
     1          5.47537205          9.80572728         -1.85972774
     1          1.62455634         11.19828295          0.43332977
     1         -2.38862086          8.81054135         -0.08242151
     1          2.85207670          2.89684115         -6.95872230
     1          1.95157113          4.52178104          1.56811006
     1          5.10800284          7.43824208          3.32052281
     1          7.59840765          6.22731355          7.11527182
     1          6.93777310          2.04162987          9.11435197
     1          3.81449761         -0.93408470          7.34423572
     1         -2.90710904         -1.40432186         -1.24055725
     1         -6.86029337          0.70851760         -2.51723424
     1         -8.44181157          4.40357896         -0.09265038
     1         -6.04560160          5.97511699          3.61620262
     1         -2.07964050          3.88898247          4.89731621
     1         -1.40421041         -0.64237579          7.95690583
     1         -2.76795445         -4.11141545         10.75766869
     1         -2.44124239         -8.56076377          9.32177532
     1         -0.73927731         -9.53874467          5.06589201
     1          0.64451007         -6.05663693          2.23867616
     1         -2.53278048          5.05582119         -2.89688862
     6         -2.07234020         -2.67312019         -6.50816449
     6         -4.61497838         -3.05340930         -5.93663058
     6         -0.22445440         -4.22564671         -5.46780809
     6         -5.28917717         -4.95550744         -4.25706303
     1         -6.04302150         -1.86117936         -6.79926213
     6         -0.92488157         -6.10967533         -3.77247646
     1          1.74405593         -3.95230855         -5.96616221
     6         -3.45355701         -6.48000136         -3.11336294
     1         -7.27118784         -5.24553775         -3.80379526
     1          0.52590848         -7.29937516         -2.93933246
     6         -4.18577000         -8.42672834         -1.16859661
     1         -2.77813836         -9.93547056         -1.04280986
     1         -4.33105679         -7.55264190          0.70547448
     1         -6.01939813         -9.27782056         -1.60189696

 Electric dipole moment (dipole orientation):
 (Debye = 10**-18 statcoulomb cm , SI units = C m)
                  (au)            (Debye)         (10**-30 SI)
   Tot        0.803356D+01      0.204193D+02      0.681114D+02
   x          0.000000D+00      0.000000D+00      0.000000D+00
   y          0.000000D+00      0.000000D+00      0.000000D+00
   z          0.803356D+01      0.204193D+02      0.681114D+02

 Dipole polarizability, Alpha (dipole orientation).
 (esu units = cm**3 , SI units = C**2 m**2 J**-1)
 Alpha(0;0):
               (au)            (10**-24 esu)      (10**-40 SI)
   iso        0.499103D+03      0.739595D+02      0.822910D+02
   aniso      0.126196D+03      0.187003D+02      0.208069D+02
   xx         0.454121D+03      0.672938D+02      0.748744D+02
   yx         0.446590D+02      0.661778D+01      0.736327D+01
   yy         0.539380D+03      0.799279D+02      0.889318D+02
   zx         0.300643D+02      0.445508D+01      0.495694D+01
   zy        -0.240056D+02     -0.355726D+01     -0.395799D+01
   zz         0.503809D+03      0.746568D+02      0.830669D+02

 ----------------------------------------------------------------------

 This type of calculation cannot be archived.


 THOUGH I SPEAK WITH THE TONGUES OF MEN AND OF ANGELS, 
 AND HAVE NOT LOVE,
 I AM BECOME AS SOUNDING BRASS, A TINKLING CYMBAL.
 AND THOUGH I HAVE THE GIFT OF PROPHECY,
 AND UNDERSTAND ALL MYSTERIES, AND ALL KNOWLEDGE.
 AND THOUGH I HAVE ALL FAITH, SO THAT I COULD REMOVE MOUNTAINS,
 AND HAVE NOT LOVE, I AM NOTHING.
 AND THOUGH I BESTOW ALL MY GOODS TO FEED THE POOR,
 AND THOUGH I GIVE MY BODY TO BE BURNED,
 AND HAVE NOT LOVE IT PROFITETH ME NOTHING.
 LOVE SUFFERETH LONG, AND IS KIND,
 LOVE ENVIETH NOT,
 LOVE VAUNTETH NOT ITSELF, IS NOT PUFFED UP,
 DOTH NOT BEHAVE ITSELF UNSEEMLY, SEEKETH NOT HER OWN,
 IS NOT EASILY PROVOKED, THINKETH NO EVIL,
 REJOICETH NOT IN INIQUITY, BUT REJOICETH IN THE TRUTH,
 BEARETH ALL THINGS, BELIEVETH ALL THINGS,
 HOPETH ALL THINGS, ENDURETH ALL THINGS.
 LOVE NEVER FAILETH, BUT WHETHER THERE BE PROPHECIES, THEY SHALL FAIL, 
 WHETHER THERE BE TONGUES, THEY SHALL CEASE,
 WHETHER THERE BE KNOWLEDGE, IT SHALL VANISH AWAY.
 FOR WE KNOW IN PART, AND WE PROPHESY IN PART.
 BUT WHEN THAT WHICH IS PERFECT IS COME, THEN THAT WHICH IS IN PART 
 SHALL BE DONE AWAY. 
 WHEN I WAS A CHILD, I SPAKE AS A CHILD, I UNDERSTOOD AS A CHILD, 
 I THOUGHT AS A CHILD.
 BUT WHEN I BECAME A MAN, I PUT AWAY CHILDISH THINGS.
 FOR NOW WE SEE THROUGH A GLASS, DARKLY, BUT THEN FACE TO FACE.
 NOW I KNOW IN PART. BUT THEN SHALL I KNOW EVEN AS ALSO I AM KNOWN.
 AND NOW ABIDETH FAITH, HOPE AND LOVE, THESE THREE.
 BUT THE GREATEST OF THESE IS LOVE.

                     I CORINTHIANS 13
 Job cpu time:       0 days  0 hours  0 minutes  2.1 seconds.
 Elapsed time:       0 days  0 hours  0 minutes  0.6 seconds.
 File lengths (MBytes):  RWF=     10 Int=      0 D2E=      0 Chk=     11 Scr=      1
 Normal termination of Gaussian 16 at Sat Apr  4 18:50:33 2020.
