 Entering Gaussian System, Link 0=g16
 Input=acyclic_3.gjf
 Output=acyclic_3.log
 Initial command:
 /apps/cent7/gaussian/g16-A.03/g16-haswell/g16/l1.exe "/scratch/brown/finej/0051_imine_mechanism/ts_631gd/acyclic_complete/new_logs_2/Gau-72770.inp" -scrdir="/scratch/brown/finej/0051_imine_mechanism/ts_631gd/acyclic_complete/new_logs_2/"
 Entering Link 1 = /apps/cent7/gaussian/g16-A.03/g16-haswell/g16/l1.exe PID=     72771.
  
 Copyright (c) 1988,1990,1992,1993,1995,1998,2003,2009,2016,
            Gaussian, Inc.  All Rights Reserved.
  
 This is part of the Gaussian(R) 16 program.  It is based on
 the Gaussian(R) 09 system (copyright 2009, Gaussian, Inc.),
 the Gaussian(R) 03 system (copyright 2003, Gaussian, Inc.),
 the Gaussian(R) 98 system (copyright 1998, Gaussian, Inc.),
 the Gaussian(R) 94 system (copyright 1995, Gaussian, Inc.),
 the Gaussian 92(TM) system (copyright 1992, Gaussian, Inc.),
 the Gaussian 90(TM) system (copyright 1990, Gaussian, Inc.),
 the Gaussian 88(TM) system (copyright 1988, Gaussian, Inc.),
 the Gaussian 86(TM) system (copyright 1986, Carnegie Mellon
 University), and the Gaussian 82(TM) system (copyright 1983,
 Carnegie Mellon University). Gaussian is a federally registered
 trademark of Gaussian, Inc.
  
 This software contains proprietary and confidential information,
 including trade secrets, belonging to Gaussian, Inc.
  
 This software is provided under written license and may be
 used, copied, transmitted, or stored only in accord with that
 written license.
  
 The following legend is applicable only to US Government
 contracts under FAR:
  
                    RESTRICTED RIGHTS LEGEND
  
 Use, reproduction and disclosure by the US Government is
 subject to restrictions as set forth in subparagraphs (a)
 and (c) of the Commercial Computer Software - Restricted
 Rights clause in FAR 52.227-19.
  
 Gaussian, Inc.
 340 Quinnipiac St., Bldg. 40, Wallingford CT 06492
  
  
 ---------------------------------------------------------------
 Warning -- This program may not be used in any manner that
 competes with the business of Gaussian, Inc. or will provide
 assistance to any competitor of Gaussian, Inc.  The licensee
 of this program is prohibited from giving any competitor of
 Gaussian, Inc. access to this program.  By using this program,
 the user acknowledges that Gaussian, Inc. is engaged in the
 business of creating and licensing software in the field of
 computational chemistry and represents and warrants to the
 licensee that it is not a competitor of Gaussian, Inc. and that
 it will not use this program in any manner prohibited above.
 ---------------------------------------------------------------
  

 Cite this work as:
 Gaussian 16, Revision A.03,
 M. J. Frisch, G. W. Trucks, H. B. Schlegel, G. E. Scuseria, 
 M. A. Robb, J. R. Cheeseman, G. Scalmani, V. Barone, 
 G. A. Petersson, H. Nakatsuji, X. Li, M. Caricato, A. V. Marenich, 
 J. Bloino, B. G. Janesko, R. Gomperts, B. Mennucci, H. P. Hratchian, 
 J. V. Ortiz, A. F. Izmaylov, J. L. Sonnenberg, D. Williams-Young, 
 F. Ding, F. Lipparini, F. Egidi, J. Goings, B. Peng, A. Petrone, 
 T. Henderson, D. Ranasinghe, V. G. Zakrzewski, J. Gao, N. Rega, 
 G. Zheng, W. Liang, M. Hada, M. Ehara, K. Toyota, R. Fukuda, 
 J. Hasegawa, M. Ishida, T. Nakajima, Y. Honda, O. Kitao, H. Nakai, 
 T. Vreven, K. Throssell, J. A. Montgomery, Jr., J. E. Peralta, 
 F. Ogliaro, M. J. Bearpark, J. J. Heyd, E. N. Brothers, K. N. Kudin, 
 V. N. Staroverov, T. A. Keith, R. Kobayashi, J. Normand, 
 K. Raghavachari, A. P. Rendell, J. C. Burant, S. S. Iyengar, 
 J. Tomasi, M. Cossi, J. M. Millam, M. Klene, C. Adamo, R. Cammi, 
 J. W. Ochterski, R. L. Martin, K. Morokuma, O. Farkas, 
 J. B. Foresman, and D. J. Fox, Gaussian, Inc., Wallingford CT, 2016.
 
 ******************************************
 Gaussian 16:  ES64L-G16RevA.03 25-Dec-2016
                 4-Apr-2020 
 ******************************************
 %nprocshared=4
 Will use up to    4 processors via shared memory.
 %mem=1GB
 %oldchk=chk/acyclic_3.chk
 Copying data from "chk/acyclic_3.chk" to current chk file "/scratch/brown/finej/0051_imine_mechanism/ts_631gd/acyclic_complete/new_logs_2/Gau-72771.chk"
 IOpt=  2 FromEx=T IUOpen= 4 IOptOp= 5 NList=   0 IFRang= 0 IUIn= 4 IUOut= 2.
 ----------------------------------------------------------------------
 # freq=readfc wb97xd/6-31g(d) scrf=solvent=dichloromethane geom=check 
 temperature=263.15
 ----------------------------------------------------------------------
 1/29=2,38=1,112=263150,172=1/1;
 2/12=2,40=1/2;
 7/8=1,25=11/16;
 99/5=2/99;
 --------------
 Intermediate 3
 --------------
 Structure from the checkpoint file:  "/scratch/brown/finej/0051_imine_mechanism/ts_631gd/acyclic_complete/new_logs_2/Gau-72771.chk"
 Charge =  0 Multiplicity = 1
 Redundant internal coordinates found in file.  (old form).
 C,0,3.4499188421,1.355446007,0.8983849753
 C,0,4.443414255,2.1024580048,1.5181301082
 C,0,4.8139056437,1.8210980639,2.8326453431
 C,0,4.1851000486,0.7886123897,3.5209887798
 C,0,3.1921409413,0.0374977209,2.8947347767
 C,0,2.8184072647,0.3134032301,1.5811196039
 C,0,1.7452096355,-0.5344020253,0.914243432
 O,0,3.1915732871,-2.4516817086,-2.114212701
 O,0,3.2882278061,-3.0671295446,0.345594206
 S,0,3.3285694115,-2.0649327313,-0.7139727351
 N,0,2.0988605217,-1.0189424607,-0.4288577413
 C,0,-1.1546638882,3.2912213343,-2.4219404041
 C,0,-1.8818452589,4.4587635076,-2.6183999141
 C,0,-2.0976132279,5.3308729603,-1.5525419782
 C,0,-1.5859169487,5.0357756814,-0.2891904299
 C,0,-0.8629569159,3.8658743765,-0.0869077425
 O,0,0.2599076096,0.894857088,-1.8569438475
 C,0,-0.6473030896,2.9914120381,-1.1556068628
 C,0,0.0517588278,1.7004390026,-0.9706191432
 O,0,0.5009853438,1.5027457209,0.2941023224
 C,0,0.438130418,0.1877321031,0.7572063294
 N,0,-0.6839569667,-0.3822484335,0.936963587
 C,0,-3.0243189919,-1.8602942199,-0.70752191
 N,0,-1.7786972679,0.3752889757,0.5859594734
 C,0,-4.3925075825,0.6588076951,-0.0810272041
 C,0,-3.713810199,-1.2627194631,2.038240606
 P,0,-3.1347311802,-0.5028283039,0.4946921212
 C,0,-3.8826729262,-2.9640854231,-0.6706791422
 C,0,-3.7800730597,-3.9566146226,-1.6401568104
 C,0,-2.8158054419,-3.8555761481,-2.6409428896
 C,0,-1.9547259964,-2.7611436508,-2.6754262888
 C,0,-2.0574860181,-1.7612616269,-1.7134693139
 C,0,-5.6599547148,0.1990244593,-0.4532306643
 C,0,-6.6162602534,1.0981261317,-0.9118323163
 C,0,-6.3082189146,2.454520882,-1.0082359338
 C,0,-5.0449136708,2.9122886894,-0.642990718
 C,0,-4.0855913235,2.0184820316,-0.1767781432
 C,0,-3.0308714421,-2.3820846138,2.5321516403
 C,0,-3.385008348,-2.9268225695,3.7610827269
 C,0,-4.4202189833,-2.3603309544,4.5030293403
 C,0,-5.0982720741,-1.2448473899,4.0185857365
 C,0,-4.7443996538,-0.6921540068,2.7909264731
 H,0,3.1841668106,1.563392473,-0.1333919501
 H,0,4.9385850158,2.8989806596,0.9708769622
 H,0,5.5951611999,2.4016496438,3.3143285665
 H,0,4.4714697879,0.5589349688,4.5429544261
 H,0,1.5426397349,-1.4118430384,1.532632188
 H,0,1.7811845999,-0.4731813724,-1.2275261605
 H,0,-0.9858769557,2.5965810533,-3.2378143
 H,0,-2.283429369,4.6877039779,-3.6002536057
 H,0,-2.6672695192,6.2424987988,-1.7059370678
 H,0,-1.7565424567,5.7149659358,0.5398982102
 H,0,-0.4809632146,3.6169677937,0.8962194999
 H,0,-4.6214910587,-3.0604584522,0.1199891284
 H,0,-4.4468191173,-4.8125558413,-1.6086022293
 H,0,-2.7317619676,-4.6352446794,-3.3918844862
 H,0,-1.1968396968,-2.6871328373,-3.448858744
 H,0,-1.3815061464,-0.9110437208,-1.7365660304
 H,0,-5.9038220693,-0.8580710112,-0.3913683885
 H,0,-7.5993619323,0.7395227158,-1.1996090045
 H,0,-7.0549634139,3.1535542256,-1.3724382537
 H,0,-4.7974328294,3.9662744634,-0.7233400694
 H,0,-3.0965711805,2.3633911218,0.1025453417
 H,0,-2.225277722,-2.8273165331,1.955838765
 H,0,-2.8543929565,-3.7949675826,4.1389452699
 H,0,-4.6981085408,-2.7897627938,5.4607039018
 H,0,-5.9044809077,-0.8029791407,4.5956012471
 H,0,-5.2750704689,0.1795149134,2.4202099675
 H,0,2.7120544273,-0.7777340337,3.4303585434
 C,0,4.8589870699,-1.1773228551,-0.5430147492
 C,0,5.5891015346,-1.2847905239,0.6361034555
 C,0,5.254682034,-0.3084012095,-1.5557392736
 C,0,6.720560646,-0.4982539106,0.8035916276
 H,0,5.2635299053,-1.9637624731,1.4155875784
 C,0,6.3883665401,0.4728687592,-1.3709109742
 H,0,4.6832505946,-0.2418566455,-2.4761254851
 C,0,7.1280978756,0.3999332019,-0.1867143414
 H,0,7.2878637745,-0.5715703395,1.7271290443
 H,0,6.7002222778,1.1542166303,-2.157567715
 C,0,8.318699273,1.29417806,0.0399106821
 H,0,8.0381828439,2.1436577368,0.6742055518
 H,0,9.1271461013,0.7599826414,0.5482032448
 H,0,8.7066220553,1.6941390167,-0.9009081652
 Recover connectivity data from disk.
                           ----------------------------
                           !    Current Parameters    !
                           ! (Angstroms and Degrees)  !
 --------------------------                            --------------------------
 ! Name  Definition              Value          Derivative Info.                !
 --------------------------------------------------------------------------------
 ! R1    R(1,2)                  1.3889         estimate D2E/DX2                !
 ! R2    R(1,6)                  1.3967         estimate D2E/DX2                !
 ! R3    R(1,43)                 1.0856         estimate D2E/DX2                !
 ! R4    R(2,3)                  1.3944         estimate D2E/DX2                !
 ! R5    R(2,44)                 1.0859         estimate D2E/DX2                !
 ! R6    R(3,4)                  1.3911         estimate D2E/DX2                !
 ! R7    R(3,45)                 1.086          estimate D2E/DX2                !
 ! R8    R(4,5)                  1.3937         estimate D2E/DX2                !
 ! R9    R(4,46)                 1.0859         estimate D2E/DX2                !
 ! R10   R(5,6)                  1.3933         estimate D2E/DX2                !
 ! R11   R(5,69)                 1.0872         estimate D2E/DX2                !
 ! R12   R(6,7)                  1.5216         estimate D2E/DX2                !
 ! R13   R(7,11)                 1.471          estimate D2E/DX2                !
 ! R14   R(7,21)                 1.5015         estimate D2E/DX2                !
 ! R15   R(7,47)                 1.0924         estimate D2E/DX2                !
 ! R16   R(8,10)                 1.4591         estimate D2E/DX2                !
 ! R17   R(9,10)                 1.459          estimate D2E/DX2                !
 ! R18   R(10,11)                1.6394         estimate D2E/DX2                !
 ! R19   R(10,70)                1.7774         estimate D2E/DX2                !
 ! R20   R(11,48)                1.0182         estimate D2E/DX2                !
 ! R21   R(12,13)                1.3894         estimate D2E/DX2                !
 ! R22   R(12,18)                1.3967         estimate D2E/DX2                !
 ! R23   R(12,49)                1.0847         estimate D2E/DX2                !
 ! R24   R(13,14)                1.394          estimate D2E/DX2                !
 ! R25   R(13,50)                1.0852         estimate D2E/DX2                !
 ! R26   R(14,15)                1.3946         estimate D2E/DX2                !
 ! R27   R(14,51)                1.0859         estimate D2E/DX2                !
 ! R28   R(15,16)                1.3901         estimate D2E/DX2                !
 ! R29   R(15,52)                1.0853         estimate D2E/DX2                !
 ! R30   R(16,18)                1.3976         estimate D2E/DX2                !
 ! R31   R(16,53)                1.0837         estimate D2E/DX2                !
 ! R32   R(17,19)                1.2157         estimate D2E/DX2                !
 ! R33   R(18,19)                1.4797         estimate D2E/DX2                !
 ! R34   R(19,20)                1.3566         estimate D2E/DX2                !
 ! R35   R(20,21)                1.3956         estimate D2E/DX2                !
 ! R36   R(21,22)                1.2713         estimate D2E/DX2                !
 ! R37   R(22,24)                1.3768         estimate D2E/DX2                !
 ! R38   R(23,27)                1.8167         estimate D2E/DX2                !
 ! R39   R(23,28)                1.3987         estimate D2E/DX2                !
 ! R40   R(23,32)                1.3988         estimate D2E/DX2                !
 ! R41   R(24,27)                1.6181         estimate D2E/DX2                !
 ! R42   R(25,27)                1.8063         estimate D2E/DX2                !
 ! R43   R(25,33)                1.3987         estimate D2E/DX2                !
 ! R44   R(25,37)                1.3972         estimate D2E/DX2                !
 ! R45   R(26,27)                1.8153         estimate D2E/DX2                !
 ! R46   R(26,38)                1.4012         estimate D2E/DX2                !
 ! R47   R(26,42)                1.3979         estimate D2E/DX2                !
 ! R48   R(28,29)                1.3912         estimate D2E/DX2                !
 ! R49   R(28,54)                1.0864         estimate D2E/DX2                !
 ! R50   R(29,30)                1.3934         estimate D2E/DX2                !
 ! R51   R(29,55)                1.0854         estimate D2E/DX2                !
 ! R52   R(30,31)                1.393          estimate D2E/DX2                !
 ! R53   R(30,56)                1.0858         estimate D2E/DX2                !
 ! R54   R(31,32)                1.3913         estimate D2E/DX2                !
 ! R55   R(31,57)                1.0854         estimate D2E/DX2                !
 ! R56   R(32,58)                1.0864         estimate D2E/DX2                !
 ! R57   R(33,34)                1.3904         estimate D2E/DX2                !
 ! R58   R(33,59)                1.0866         estimate D2E/DX2                !
 ! R59   R(34,35)                1.3943         estimate D2E/DX2                !
 ! R60   R(34,60)                1.0853         estimate D2E/DX2                !
 ! R61   R(35,36)                1.3924         estimate D2E/DX2                !
 ! R62   R(35,61)                1.0858         estimate D2E/DX2                !
 ! R63   R(36,37)                1.3916         estimate D2E/DX2                !
 ! R64   R(36,62)                1.0856         estimate D2E/DX2                !
 ! R65   R(37,63)                1.084          estimate D2E/DX2                !
 ! R66   R(38,39)                1.3901         estimate D2E/DX2                !
 ! R67   R(38,64)                1.086          estimate D2E/DX2                !
 ! R68   R(39,40)                1.3939         estimate D2E/DX2                !
 ! R69   R(39,65)                1.0854         estimate D2E/DX2                !
 ! R70   R(40,41)                1.3924         estimate D2E/DX2                !
 ! R71   R(40,66)                1.0857         estimate D2E/DX2                !
 ! R72   R(41,42)                1.3921         estimate D2E/DX2                !
 ! R73   R(41,67)                1.0854         estimate D2E/DX2                !
 ! R74   R(42,68)                1.0857         estimate D2E/DX2                !
 ! R75   R(70,71)                1.391          estimate D2E/DX2                !
 ! R76   R(70,72)                1.3918         estimate D2E/DX2                !
 ! R77   R(71,73)                1.3881         estimate D2E/DX2                !
 ! R78   R(71,74)                1.0838         estimate D2E/DX2                !
 ! R79   R(72,75)                1.3892         estimate D2E/DX2                !
 ! R80   R(72,76)                1.0854         estimate D2E/DX2                !
 ! R81   R(73,77)                1.3977         estimate D2E/DX2                !
 ! R82   R(73,78)                1.0863         estimate D2E/DX2                !
 ! R83   R(75,77)                1.3982         estimate D2E/DX2                !
 ! R84   R(75,79)                1.0864         estimate D2E/DX2                !
 ! R85   R(77,80)                1.5062         estimate D2E/DX2                !
 ! R86   R(80,81)                1.0966         estimate D2E/DX2                !
 ! R87   R(80,82)                1.0942         estimate D2E/DX2                !
 ! R88   R(80,83)                1.0934         estimate D2E/DX2                !
 ! A1    A(2,1,6)              120.4352         estimate D2E/DX2                !
 ! A2    A(2,1,43)             119.7476         estimate D2E/DX2                !
 ! A3    A(6,1,43)             119.7905         estimate D2E/DX2                !
 ! A4    A(1,2,3)              120.1434         estimate D2E/DX2                !
 ! A5    A(1,2,44)             119.7239         estimate D2E/DX2                !
 ! A6    A(3,2,44)             120.1289         estimate D2E/DX2                !
 ! A7    A(2,3,4)              119.7435         estimate D2E/DX2                !
 ! A8    A(2,3,45)             120.0923         estimate D2E/DX2                !
 ! A9    A(4,3,45)             120.1628         estimate D2E/DX2                !
 ! A10   A(3,4,5)              119.9803         estimate D2E/DX2                !
 ! A11   A(3,4,46)             120.2289         estimate D2E/DX2                !
 ! A12   A(5,4,46)             119.7884         estimate D2E/DX2                !
 ! A13   A(4,5,6)              120.5327         estimate D2E/DX2                !
 ! A14   A(4,5,69)             119.8258         estimate D2E/DX2                !
 ! A15   A(6,5,69)             119.638          estimate D2E/DX2                !
 ! A16   A(1,6,5)              119.1637         estimate D2E/DX2                !
 ! A17   A(1,6,7)              121.3566         estimate D2E/DX2                !
 ! A18   A(5,6,7)              119.4755         estimate D2E/DX2                !
 ! A19   A(6,7,11)             114.4652         estimate D2E/DX2                !
 ! A20   A(6,7,21)             113.0692         estimate D2E/DX2                !
 ! A21   A(6,7,47)             109.2828         estimate D2E/DX2                !
 ! A22   A(11,7,21)            105.7959         estimate D2E/DX2                !
 ! A23   A(11,7,47)            107.2698         estimate D2E/DX2                !
 ! A24   A(21,7,47)            106.5037         estimate D2E/DX2                !
 ! A25   A(8,10,9)             120.8142         estimate D2E/DX2                !
 ! A26   A(8,10,11)            105.4019         estimate D2E/DX2                !
 ! A27   A(8,10,70)            107.7887         estimate D2E/DX2                !
 ! A28   A(9,10,11)            106.9315         estimate D2E/DX2                !
 ! A29   A(9,10,70)            107.2764         estimate D2E/DX2                !
 ! A30   A(11,10,70)           108.0901         estimate D2E/DX2                !
 ! A31   A(7,11,10)            123.3196         estimate D2E/DX2                !
 ! A32   A(7,11,48)            117.6877         estimate D2E/DX2                !
 ! A33   A(10,11,48)           116.0799         estimate D2E/DX2                !
 ! A34   A(13,12,18)           119.912          estimate D2E/DX2                !
 ! A35   A(13,12,49)           120.8767         estimate D2E/DX2                !
 ! A36   A(18,12,49)           119.2049         estimate D2E/DX2                !
 ! A37   A(12,13,14)           119.9079         estimate D2E/DX2                !
 ! A38   A(12,13,50)           119.9249         estimate D2E/DX2                !
 ! A39   A(14,13,50)           120.1669         estimate D2E/DX2                !
 ! A40   A(13,14,15)           120.23           estimate D2E/DX2                !
 ! A41   A(13,14,51)           119.8959         estimate D2E/DX2                !
 ! A42   A(15,14,51)           119.8741         estimate D2E/DX2                !
 ! A43   A(14,15,16)           120.0485         estimate D2E/DX2                !
 ! A44   A(14,15,52)           120.128          estimate D2E/DX2                !
 ! A45   A(16,15,52)           119.8221         estimate D2E/DX2                !
 ! A46   A(15,16,18)           119.7071         estimate D2E/DX2                !
 ! A47   A(15,16,53)           120.5738         estimate D2E/DX2                !
 ! A48   A(18,16,53)           119.7092         estimate D2E/DX2                !
 ! A49   A(12,18,16)           120.1931         estimate D2E/DX2                !
 ! A50   A(12,18,19)           118.1788         estimate D2E/DX2                !
 ! A51   A(16,18,19)           121.546          estimate D2E/DX2                !
 ! A52   A(17,19,18)           124.603          estimate D2E/DX2                !
 ! A53   A(17,19,20)           121.7646         estimate D2E/DX2                !
 ! A54   A(18,19,20)           113.5862         estimate D2E/DX2                !
 ! A55   A(19,20,21)           115.5789         estimate D2E/DX2                !
 ! A56   A(7,21,20)            116.6579         estimate D2E/DX2                !
 ! A57   A(7,21,22)            122.5411         estimate D2E/DX2                !
 ! A58   A(20,21,22)           120.6052         estimate D2E/DX2                !
 ! A59   A(21,22,24)           114.776          estimate D2E/DX2                !
 ! A60   A(27,23,28)           122.3397         estimate D2E/DX2                !
 ! A61   A(27,23,32)           117.7127         estimate D2E/DX2                !
 ! A62   A(28,23,32)           119.9328         estimate D2E/DX2                !
 ! A63   A(22,24,27)           112.4667         estimate D2E/DX2                !
 ! A64   A(27,25,33)           120.2908         estimate D2E/DX2                !
 ! A65   A(27,25,37)           119.651          estimate D2E/DX2                !
 ! A66   A(33,25,37)           120.0477         estimate D2E/DX2                !
 ! A67   A(27,26,38)           118.5976         estimate D2E/DX2                !
 ! A68   A(27,26,42)           121.4765         estimate D2E/DX2                !
 ! A69   A(38,26,42)           119.7087         estimate D2E/DX2                !
 ! A70   A(23,27,24)           113.0731         estimate D2E/DX2                !
 ! A71   A(23,27,25)           108.176          estimate D2E/DX2                !
 ! A72   A(23,27,26)           105.6226         estimate D2E/DX2                !
 ! A73   A(24,27,25)           104.6268         estimate D2E/DX2                !
 ! A74   A(24,27,26)           116.5222         estimate D2E/DX2                !
 ! A75   A(25,27,26)           108.5472         estimate D2E/DX2                !
 ! A76   A(23,28,29)           119.9582         estimate D2E/DX2                !
 ! A77   A(23,28,54)           120.4305         estimate D2E/DX2                !
 ! A78   A(29,28,54)           119.605          estimate D2E/DX2                !
 ! A79   A(28,29,30)           119.9867         estimate D2E/DX2                !
 ! A80   A(28,29,55)           119.8029         estimate D2E/DX2                !
 ! A81   A(30,29,55)           120.2081         estimate D2E/DX2                !
 ! A82   A(29,30,31)           120.167          estimate D2E/DX2                !
 ! A83   A(29,30,56)           119.884          estimate D2E/DX2                !
 ! A84   A(31,30,56)           119.9479         estimate D2E/DX2                !
 ! A85   A(30,31,32)           120.1236         estimate D2E/DX2                !
 ! A86   A(30,31,57)           120.1884         estimate D2E/DX2                !
 ! A87   A(32,31,57)           119.6869         estimate D2E/DX2                !
 ! A88   A(23,32,31)           119.8293         estimate D2E/DX2                !
 ! A89   A(23,32,58)           120.0507         estimate D2E/DX2                !
 ! A90   A(31,32,58)           120.1165         estimate D2E/DX2                !
 ! A91   A(25,33,34)           119.8977         estimate D2E/DX2                !
 ! A92   A(25,33,59)           120.5312         estimate D2E/DX2                !
 ! A93   A(34,33,59)           119.5706         estimate D2E/DX2                !
 ! A94   A(33,34,35)           119.9955         estimate D2E/DX2                !
 ! A95   A(33,34,60)           119.7893         estimate D2E/DX2                !
 ! A96   A(35,34,60)           120.2141         estimate D2E/DX2                !
 ! A97   A(34,35,36)           120.1409         estimate D2E/DX2                !
 ! A98   A(34,35,61)           119.839          estimate D2E/DX2                !
 ! A99   A(36,35,61)           120.0198         estimate D2E/DX2                !
 ! A100  A(35,36,37)           120.1429         estimate D2E/DX2                !
 ! A101  A(35,36,62)           120.436          estimate D2E/DX2                !
 ! A102  A(37,36,62)           119.4204         estimate D2E/DX2                !
 ! A103  A(25,37,36)           119.7739         estimate D2E/DX2                !
 ! A104  A(25,37,63)           119.4977         estimate D2E/DX2                !
 ! A105  A(36,37,63)           120.7244         estimate D2E/DX2                !
 ! A106  A(26,38,39)           120.0333         estimate D2E/DX2                !
 ! A107  A(26,38,64)           120.1336         estimate D2E/DX2                !
 ! A108  A(39,38,64)           119.833          estimate D2E/DX2                !
 ! A109  A(38,39,40)           120.0325         estimate D2E/DX2                !
 ! A110  A(38,39,65)           119.7801         estimate D2E/DX2                !
 ! A111  A(40,39,65)           120.1873         estimate D2E/DX2                !
 ! A112  A(39,40,41)           120.135          estimate D2E/DX2                !
 ! A113  A(39,40,66)           119.9231         estimate D2E/DX2                !
 ! A114  A(41,40,66)           119.9419         estimate D2E/DX2                !
 ! A115  A(40,41,42)           120.0738         estimate D2E/DX2                !
 ! A116  A(40,41,67)           120.1904         estimate D2E/DX2                !
 ! A117  A(42,41,67)           119.7358         estimate D2E/DX2                !
 ! A118  A(26,42,41)           120.0133         estimate D2E/DX2                !
 ! A119  A(26,42,68)           120.2758         estimate D2E/DX2                !
 ! A120  A(41,42,68)           119.7104         estimate D2E/DX2                !
 ! A121  A(10,70,71)           119.6621         estimate D2E/DX2                !
 ! A122  A(10,70,72)           119.115          estimate D2E/DX2                !
 ! A123  A(71,70,72)           121.05           estimate D2E/DX2                !
 ! A124  A(70,71,73)           119.0995         estimate D2E/DX2                !
 ! A125  A(70,71,74)           120.0255         estimate D2E/DX2                !
 ! A126  A(73,71,74)           120.8674         estimate D2E/DX2                !
 ! A127  A(70,72,75)           119.0983         estimate D2E/DX2                !
 ! A128  A(70,72,76)           120.3714         estimate D2E/DX2                !
 ! A129  A(75,72,76)           120.5303         estimate D2E/DX2                !
 ! A130  A(71,73,77)           121.0843         estimate D2E/DX2                !
 ! A131  A(71,73,78)           119.3401         estimate D2E/DX2                !
 ! A132  A(77,73,78)           119.5678         estimate D2E/DX2                !
 ! A133  A(72,75,77)           121.0058         estimate D2E/DX2                !
 ! A134  A(72,75,79)           119.3818         estimate D2E/DX2                !
 ! A135  A(77,75,79)           119.6116         estimate D2E/DX2                !
 ! A136  A(73,77,75)           118.6436         estimate D2E/DX2                !
 ! A137  A(73,77,80)           120.359          estimate D2E/DX2                !
 ! A138  A(75,77,80)           120.9768         estimate D2E/DX2                !
 ! A139  A(77,80,81)           110.1654         estimate D2E/DX2                !
 ! A140  A(77,80,82)           111.3507         estimate D2E/DX2                !
 ! A141  A(77,80,83)           111.6018         estimate D2E/DX2                !
 ! A142  A(81,80,82)           107.3661         estimate D2E/DX2                !
 ! A143  A(81,80,83)           107.7626         estimate D2E/DX2                !
 ! A144  A(82,80,83)           108.43           estimate D2E/DX2                !
 ! D1    D(6,1,2,3)             -0.3287         estimate D2E/DX2                !
 ! D2    D(6,1,2,44)           178.9576         estimate D2E/DX2                !
 ! D3    D(43,1,2,3)          -178.4446         estimate D2E/DX2                !
 ! D4    D(43,1,2,44)            0.8417         estimate D2E/DX2                !
 ! D5    D(2,1,6,5)              0.3703         estimate D2E/DX2                !
 ! D6    D(2,1,6,7)           -178.886          estimate D2E/DX2                !
 ! D7    D(43,1,6,5)           178.4853         estimate D2E/DX2                !
 ! D8    D(43,1,6,7)            -0.7709         estimate D2E/DX2                !
 ! D9    D(1,2,3,4)              0.0367         estimate D2E/DX2                !
 ! D10   D(1,2,3,45)           179.6158         estimate D2E/DX2                !
 ! D11   D(44,2,3,4)          -179.2468         estimate D2E/DX2                !
 ! D12   D(44,2,3,45)            0.3323         estimate D2E/DX2                !
 ! D13   D(2,3,4,5)              0.2088         estimate D2E/DX2                !
 ! D14   D(2,3,4,46)           179.6415         estimate D2E/DX2                !
 ! D15   D(45,3,4,5)          -179.37           estimate D2E/DX2                !
 ! D16   D(45,3,4,46)            0.0627         estimate D2E/DX2                !
 ! D17   D(3,4,5,6)             -0.165          estimate D2E/DX2                !
 ! D18   D(3,4,5,69)           179.1518         estimate D2E/DX2                !
 ! D19   D(46,4,5,6)          -179.6002         estimate D2E/DX2                !
 ! D20   D(46,4,5,69)           -0.2835         estimate D2E/DX2                !
 ! D21   D(4,5,6,1)             -0.1236         estimate D2E/DX2                !
 ! D22   D(4,5,6,7)            179.1469         estimate D2E/DX2                !
 ! D23   D(69,5,6,1)          -179.4416         estimate D2E/DX2                !
 ! D24   D(69,5,6,7)            -0.1711         estimate D2E/DX2                !
 ! D25   D(1,6,7,11)            47.5342         estimate D2E/DX2                !
 ! D26   D(1,6,7,21)           -73.7201         estimate D2E/DX2                !
 ! D27   D(1,6,7,47)           167.8472         estimate D2E/DX2                !
 ! D28   D(5,6,7,11)          -131.7198         estimate D2E/DX2                !
 ! D29   D(5,6,7,21)           107.0259         estimate D2E/DX2                !
 ! D30   D(5,6,7,47)           -11.4068         estimate D2E/DX2                !
 ! D31   D(6,7,11,10)           64.7187         estimate D2E/DX2                !
 ! D32   D(6,7,11,48)          -95.1795         estimate D2E/DX2                !
 ! D33   D(21,7,11,10)        -170.1044         estimate D2E/DX2                !
 ! D34   D(21,7,11,48)          29.9975         estimate D2E/DX2                !
 ! D35   D(47,7,11,10)         -56.7066         estimate D2E/DX2                !
 ! D36   D(47,7,11,48)         143.3952         estimate D2E/DX2                !
 ! D37   D(6,7,21,20)           44.4314         estimate D2E/DX2                !
 ! D38   D(6,7,21,22)         -140.6292         estimate D2E/DX2                !
 ! D39   D(11,7,21,20)         -81.6041         estimate D2E/DX2                !
 ! D40   D(11,7,21,22)          93.3353         estimate D2E/DX2                !
 ! D41   D(47,7,21,20)         164.4674         estimate D2E/DX2                !
 ! D42   D(47,7,21,22)         -20.5932         estimate D2E/DX2                !
 ! D43   D(8,10,11,7)          170.7234         estimate D2E/DX2                !
 ! D44   D(8,10,11,48)         -29.0825         estimate D2E/DX2                !
 ! D45   D(9,10,11,7)           40.9854         estimate D2E/DX2                !
 ! D46   D(9,10,11,48)        -158.8205         estimate D2E/DX2                !
 ! D47   D(70,10,11,7)         -74.23           estimate D2E/DX2                !
 ! D48   D(70,10,11,48)         85.9641         estimate D2E/DX2                !
 ! D49   D(8,10,70,71)        -146.6389         estimate D2E/DX2                !
 ! D50   D(8,10,70,72)          38.0879         estimate D2E/DX2                !
 ! D51   D(9,10,70,71)         -15.0958         estimate D2E/DX2                !
 ! D52   D(9,10,70,72)         169.6311         estimate D2E/DX2                !
 ! D53   D(11,10,70,71)         99.8932         estimate D2E/DX2                !
 ! D54   D(11,10,70,72)        -75.38           estimate D2E/DX2                !
 ! D55   D(18,12,13,14)          0.3059         estimate D2E/DX2                !
 ! D56   D(18,12,13,50)       -179.4738         estimate D2E/DX2                !
 ! D57   D(49,12,13,14)        179.3768         estimate D2E/DX2                !
 ! D58   D(49,12,13,50)         -0.4028         estimate D2E/DX2                !
 ! D59   D(13,12,18,16)         -0.335          estimate D2E/DX2                !
 ! D60   D(13,12,18,19)        176.4206         estimate D2E/DX2                !
 ! D61   D(49,12,18,16)       -179.4215         estimate D2E/DX2                !
 ! D62   D(49,12,18,19)         -2.666          estimate D2E/DX2                !
 ! D63   D(12,13,14,15)          0.0079         estimate D2E/DX2                !
 ! D64   D(12,13,14,51)       -179.9041         estimate D2E/DX2                !
 ! D65   D(50,13,14,15)        179.787          estimate D2E/DX2                !
 ! D66   D(50,13,14,51)         -0.125          estimate D2E/DX2                !
 ! D67   D(13,14,15,16)         -0.2953         estimate D2E/DX2                !
 ! D68   D(13,14,15,52)       -179.8806         estimate D2E/DX2                !
 ! D69   D(51,14,15,16)        179.6168         estimate D2E/DX2                !
 ! D70   D(51,14,15,52)          0.0315         estimate D2E/DX2                !
 ! D71   D(14,15,16,18)          0.2656         estimate D2E/DX2                !
 ! D72   D(14,15,16,53)       -178.588          estimate D2E/DX2                !
 ! D73   D(52,15,16,18)        179.8522         estimate D2E/DX2                !
 ! D74   D(52,15,16,53)          0.9986         estimate D2E/DX2                !
 ! D75   D(15,16,18,12)          0.0485         estimate D2E/DX2                !
 ! D76   D(15,16,18,19)       -176.5956         estimate D2E/DX2                !
 ! D77   D(53,16,18,12)        178.912          estimate D2E/DX2                !
 ! D78   D(53,16,18,19)          2.268          estimate D2E/DX2                !
 ! D79   D(12,18,19,17)          2.7034         estimate D2E/DX2                !
 ! D80   D(12,18,19,20)       -179.7399         estimate D2E/DX2                !
 ! D81   D(16,18,19,17)        179.4128         estimate D2E/DX2                !
 ! D82   D(16,18,19,20)         -3.0305         estimate D2E/DX2                !
 ! D83   D(17,19,20,21)        -38.2748         estimate D2E/DX2                !
 ! D84   D(18,19,20,21)        144.0905         estimate D2E/DX2                !
 ! D85   D(19,20,21,7)         108.9762         estimate D2E/DX2                !
 ! D86   D(19,20,21,22)        -66.0675         estimate D2E/DX2                !
 ! D87   D(7,21,22,24)        -172.0403         estimate D2E/DX2                !
 ! D88   D(20,21,22,24)          2.7045         estimate D2E/DX2                !
 ! D89   D(21,22,24,27)        166.2073         estimate D2E/DX2                !
 ! D90   D(28,23,27,24)        160.2086         estimate D2E/DX2                !
 ! D91   D(28,23,27,25)        -84.403          estimate D2E/DX2                !
 ! D92   D(28,23,27,26)         31.6652         estimate D2E/DX2                !
 ! D93   D(32,23,27,24)        -21.1961         estimate D2E/DX2                !
 ! D94   D(32,23,27,25)         94.1923         estimate D2E/DX2                !
 ! D95   D(32,23,27,26)       -149.7394         estimate D2E/DX2                !
 ! D96   D(27,23,28,29)        178.0885         estimate D2E/DX2                !
 ! D97   D(27,23,28,54)         -2.8312         estimate D2E/DX2                !
 ! D98   D(32,23,28,29)         -0.4765         estimate D2E/DX2                !
 ! D99   D(32,23,28,54)        178.6037         estimate D2E/DX2                !
 ! D100  D(27,23,32,31)       -178.5369         estimate D2E/DX2                !
 ! D101  D(27,23,32,58)          2.1451         estimate D2E/DX2                !
 ! D102  D(28,23,32,31)          0.0937         estimate D2E/DX2                !
 ! D103  D(28,23,32,58)       -179.2244         estimate D2E/DX2                !
 ! D104  D(22,24,27,23)        -58.7916         estimate D2E/DX2                !
 ! D105  D(22,24,27,25)       -176.2813         estimate D2E/DX2                !
 ! D106  D(22,24,27,26)         63.874          estimate D2E/DX2                !
 ! D107  D(33,25,27,23)         50.3037         estimate D2E/DX2                !
 ! D108  D(33,25,27,24)        171.1001         estimate D2E/DX2                !
 ! D109  D(33,25,27,26)        -63.8462         estimate D2E/DX2                !
 ! D110  D(37,25,27,23)       -128.5136         estimate D2E/DX2                !
 ! D111  D(37,25,27,24)         -7.7173         estimate D2E/DX2                !
 ! D112  D(37,25,27,26)        117.3365         estimate D2E/DX2                !
 ! D113  D(27,25,33,34)       -179.1579         estimate D2E/DX2                !
 ! D114  D(27,25,33,59)          0.5716         estimate D2E/DX2                !
 ! D115  D(37,25,33,34)         -0.3453         estimate D2E/DX2                !
 ! D116  D(37,25,33,59)        179.3842         estimate D2E/DX2                !
 ! D117  D(27,25,37,36)        178.8387         estimate D2E/DX2                !
 ! D118  D(27,25,37,63)         -0.4311         estimate D2E/DX2                !
 ! D119  D(33,25,37,36)          0.0184         estimate D2E/DX2                !
 ! D120  D(33,25,37,63)       -179.2513         estimate D2E/DX2                !
 ! D121  D(38,26,27,23)         51.8612         estimate D2E/DX2                !
 ! D122  D(38,26,27,24)        -74.6054         estimate D2E/DX2                !
 ! D123  D(38,26,27,25)        167.6762         estimate D2E/DX2                !
 ! D124  D(42,26,27,23)       -133.5115         estimate D2E/DX2                !
 ! D125  D(42,26,27,24)        100.0218         estimate D2E/DX2                !
 ! D126  D(42,26,27,25)        -17.6965         estimate D2E/DX2                !
 ! D127  D(27,26,38,39)        175.1901         estimate D2E/DX2                !
 ! D128  D(27,26,38,64)         -4.9171         estimate D2E/DX2                !
 ! D129  D(42,26,38,39)          0.4655         estimate D2E/DX2                !
 ! D130  D(42,26,38,64)       -179.6417         estimate D2E/DX2                !
 ! D131  D(27,26,42,41)       -175.2796         estimate D2E/DX2                !
 ! D132  D(27,26,42,68)          5.0037         estimate D2E/DX2                !
 ! D133  D(38,26,42,41)         -0.711          estimate D2E/DX2                !
 ! D134  D(38,26,42,68)        179.5723         estimate D2E/DX2                !
 ! D135  D(23,28,29,30)          0.4922         estimate D2E/DX2                !
 ! D136  D(23,28,29,55)        179.9412         estimate D2E/DX2                !
 ! D137  D(54,28,29,30)       -178.5957         estimate D2E/DX2                !
 ! D138  D(54,28,29,55)          0.8533         estimate D2E/DX2                !
 ! D139  D(28,29,30,31)         -0.1256         estimate D2E/DX2                !
 ! D140  D(28,29,30,56)        179.4912         estimate D2E/DX2                !
 ! D141  D(55,29,30,31)       -179.5724         estimate D2E/DX2                !
 ! D142  D(55,29,30,56)          0.0444         estimate D2E/DX2                !
 ! D143  D(29,30,31,32)         -0.2586         estimate D2E/DX2                !
 ! D144  D(29,30,31,57)        179.3735         estimate D2E/DX2                !
 ! D145  D(56,30,31,32)       -179.8752         estimate D2E/DX2                !
 ! D146  D(56,30,31,57)         -0.2431         estimate D2E/DX2                !
 ! D147  D(30,31,32,23)          0.2731         estimate D2E/DX2                !
 ! D148  D(30,31,32,58)        179.5907         estimate D2E/DX2                !
 ! D149  D(57,31,32,23)       -179.3608         estimate D2E/DX2                !
 ! D150  D(57,31,32,58)         -0.0432         estimate D2E/DX2                !
 ! D151  D(25,33,34,35)          0.4129         estimate D2E/DX2                !
 ! D152  D(25,33,34,60)       -179.9633         estimate D2E/DX2                !
 ! D153  D(59,33,34,35)       -179.3192         estimate D2E/DX2                !
 ! D154  D(59,33,34,60)          0.3046         estimate D2E/DX2                !
 ! D155  D(33,34,35,36)         -0.1549         estimate D2E/DX2                !
 ! D156  D(33,34,35,61)        179.6265         estimate D2E/DX2                !
 ! D157  D(60,34,35,36)       -179.777          estimate D2E/DX2                !
 ! D158  D(60,34,35,61)          0.0044         estimate D2E/DX2                !
 ! D159  D(34,35,36,37)         -0.1734         estimate D2E/DX2                !
 ! D160  D(34,35,36,62)        179.5285         estimate D2E/DX2                !
 ! D161  D(61,35,36,37)       -179.9545         estimate D2E/DX2                !
 ! D162  D(61,35,36,62)         -0.2525         estimate D2E/DX2                !
 ! D163  D(35,36,37,25)          0.2405         estimate D2E/DX2                !
 ! D164  D(35,36,37,63)        179.5011         estimate D2E/DX2                !
 ! D165  D(62,36,37,25)       -179.4645         estimate D2E/DX2                !
 ! D166  D(62,36,37,63)         -0.2039         estimate D2E/DX2                !
 ! D167  D(26,38,39,40)          0.0243         estimate D2E/DX2                !
 ! D168  D(26,38,39,65)        179.8938         estimate D2E/DX2                !
 ! D169  D(64,38,39,40)       -179.8688         estimate D2E/DX2                !
 ! D170  D(64,38,39,65)          0.0006         estimate D2E/DX2                !
 ! D171  D(38,39,40,41)         -0.2712         estimate D2E/DX2                !
 ! D172  D(38,39,40,66)        179.7426         estimate D2E/DX2                !
 ! D173  D(65,39,40,41)        179.86           estimate D2E/DX2                !
 ! D174  D(65,39,40,66)         -0.1262         estimate D2E/DX2                !
 ! D175  D(39,40,41,42)          0.0249         estimate D2E/DX2                !
 ! D176  D(39,40,41,67)       -179.9972         estimate D2E/DX2                !
 ! D177  D(66,40,41,42)       -179.9889         estimate D2E/DX2                !
 ! D178  D(66,40,41,67)         -0.011          estimate D2E/DX2                !
 ! D179  D(40,41,42,26)          0.4674         estimate D2E/DX2                !
 ! D180  D(40,41,42,68)       -179.8143         estimate D2E/DX2                !
 ! D181  D(67,41,42,26)       -179.5105         estimate D2E/DX2                !
 ! D182  D(67,41,42,68)          0.2078         estimate D2E/DX2                !
 ! D183  D(10,70,71,73)       -174.4443         estimate D2E/DX2                !
 ! D184  D(10,70,71,74)          4.5638         estimate D2E/DX2                !
 ! D185  D(72,70,71,73)          0.7353         estimate D2E/DX2                !
 ! D186  D(72,70,71,74)        179.7433         estimate D2E/DX2                !
 ! D187  D(10,70,72,75)        174.3755         estimate D2E/DX2                !
 ! D188  D(10,70,72,76)         -5.5145         estimate D2E/DX2                !
 ! D189  D(71,70,72,75)         -0.83           estimate D2E/DX2                !
 ! D190  D(71,70,72,76)        179.28           estimate D2E/DX2                !
 ! D191  D(70,71,73,77)          0.3987         estimate D2E/DX2                !
 ! D192  D(70,71,73,78)        179.3738         estimate D2E/DX2                !
 ! D193  D(74,71,73,77)       -178.6008         estimate D2E/DX2                !
 ! D194  D(74,71,73,78)          0.3743         estimate D2E/DX2                !
 ! D195  D(70,72,75,77)         -0.2062         estimate D2E/DX2                !
 ! D196  D(70,72,75,79)       -179.8734         estimate D2E/DX2                !
 ! D197  D(76,72,75,77)        179.6836         estimate D2E/DX2                !
 ! D198  D(76,72,75,79)          0.0164         estimate D2E/DX2                !
 ! D199  D(71,73,77,75)         -1.3968         estimate D2E/DX2                !
 ! D200  D(71,73,77,80)        176.9681         estimate D2E/DX2                !
 ! D201  D(78,73,77,75)        179.6305         estimate D2E/DX2                !
 ! D202  D(78,73,77,80)         -2.0046         estimate D2E/DX2                !
 ! D203  D(72,75,77,73)          1.2983         estimate D2E/DX2                !
 ! D204  D(72,75,77,80)       -177.0561         estimate D2E/DX2                !
 ! D205  D(79,75,77,73)       -179.0352         estimate D2E/DX2                !
 ! D206  D(79,75,77,80)          2.6104         estimate D2E/DX2                !
 ! D207  D(73,77,80,81)        -78.5464         estimate D2E/DX2                !
 ! D208  D(73,77,80,82)         40.4631         estimate D2E/DX2                !
 ! D209  D(73,77,80,83)        161.7865         estimate D2E/DX2                !
 ! D210  D(75,77,80,81)         99.7799         estimate D2E/DX2                !
 ! D211  D(75,77,80,82)       -141.2106         estimate D2E/DX2                !
 ! D212  D(75,77,80,83)        -19.8872         estimate D2E/DX2                !
 --------------------------------------------------------------------------------
 Stoichiometry    C40H34N3O4PS
 Framework group  C1[X(C40H34N3O4PS)]
 Deg. of freedom   243
 Full point group                 C1      NOp   1
 Largest Abelian subgroup         C1      NOp   1
 Largest concise Abelian subgroup C1      NOp   1
                         Standard orientation:                         
 ---------------------------------------------------------------------
 Center     Atomic      Atomic             Coordinates (Angstroms)
 Number     Number       Type             X           Y           Z
 ---------------------------------------------------------------------
      1          6           0        3.494756    1.026351    1.088903
      2          6           0        4.493217    1.566775    1.889004
      3          6           0        4.868072    0.926169    3.069464
      4          6           0        4.238625   -0.256988    3.442526
      5          6           0        3.240660   -0.799519    2.635022
      6          6           0        2.862548   -0.164393    1.453907
      7          6           0        1.783862   -0.788114    0.580604
      8          8           0        3.211626   -1.778810   -2.871857
      9          8           0        3.316159   -3.061686   -0.685062
     10         16           0        3.355552   -1.801940   -1.420042
     11          7           0        2.130482   -0.875907   -0.846251
     12          6           0       -1.116734    3.827570   -1.530507
     13          6           0       -1.840823    5.004710   -1.387048
     14          6           0       -2.049394    5.542137   -0.117853
     15          6           0       -1.533588    4.902455    1.008967
     16          6           0       -0.813704    3.721421    0.870451
     17          8           0        0.292145    1.366152   -1.669352
     18          6           0       -0.605266    3.182536   -0.402131
     19          6           0        0.090248    1.890237   -0.591190
     20          8           0        0.543914    1.343766    0.564649
     21          6           0        0.478563   -0.048291    0.639364
     22          7           0       -0.644675   -0.643521    0.656886
     23          6           0       -2.996544   -1.594361   -1.325754
     24          7           0       -1.738302    0.184415    0.538457
     25          6           0       -4.353827    0.649501   -0.009253
     26          6           0       -3.672967   -1.792067    1.480502
     27         15           0       -3.097600   -0.629768    0.210335
     28          6           0       -3.858401   -2.662166   -1.596826
     29          6           0       -3.763008   -3.342033   -2.806871
     30          6           0       -2.802455   -2.965471   -3.743424
     31          6           0       -1.937894   -1.907317   -3.472734
     32          6           0       -2.033454   -1.218277   -2.267837
     33          6           0       -5.624284    0.315615   -0.489687
     34          6           0       -6.579442    1.309386   -0.672202
     35          6           0       -6.267292    2.637475   -0.384569
     36          6           0       -5.001012    2.971393    0.088640
     37          6           0       -4.042788    1.980556    0.279934
     38          6           0       -2.991760   -3.006576    1.636242
     39          6           0       -3.342743   -3.874354    2.663956
     40          6           0       -4.373066   -3.537382    3.540279
     41          6           0       -5.049362   -2.329271    3.392508
     42          6           0       -4.698613   -1.454216    2.368254
     43          1           0        3.225535    1.516743    0.158599
     44          1           0        4.988817    2.484079    1.585586
     45          1           0        5.653186    1.346138    3.691268
     46          1           0        4.528351   -0.765515    4.357202
     47          1           0        1.580877   -1.803682    0.928112
     48          1           0        1.811400   -0.126830   -1.457572
     49          1           0       -0.953545    3.390203   -2.509662
     50          1           0       -2.245602    5.501480   -2.262886
     51          1           0       -2.616635    6.461260   -0.005828
     52          1           0       -1.698612    5.321282    1.996464
     53          1           0       -0.428576    3.205174    1.741989
     54          1           0       -4.594340   -2.975594   -0.861671
     55          1           0       -4.432458   -4.170906   -3.014206
     56          1           0       -2.724029   -3.502527   -4.683786
     57          1           0       -1.182892   -1.620236   -4.197733
     58          1           0       -1.354755   -0.397295   -2.054040
     59          1           0       -5.871407   -0.715679   -0.726565
     60          1           0       -7.564882    1.048254   -1.044519
     61          1           0       -7.013176    3.412270   -0.533795
     62          1           0       -4.750360    4.004898    0.306887
     63          1           0       -3.051510    2.230913    0.640259
     64          1           0       -2.189980   -3.273320    0.954080
     65          1           0       -2.813492   -4.814830    2.779749
     66          1           0       -4.648514   -4.218348    4.339772
     67          1           0       -5.851766   -2.065952    4.074401
     68          1           0       -5.227879   -0.512370    2.260310
     69          1           0        2.760035   -1.731534    2.921945
     70          6           0        4.889584   -1.001427   -1.013617
     71          6           0        5.624089   -1.437808    0.084113
     72          6           0        5.284073    0.116520   -1.742852
     73          6           0        6.758818   -0.732492    0.460689
     74          1           0        5.299412   -2.307999    0.642637
     75          6           0        6.421080    0.811899   -1.351129
     76          1           0        4.709157    0.440508   -2.604580
     77          6           0        7.165336    0.407207   -0.238856
     78          1           0        7.329596   -1.063857    1.323556
     79          1           0        6.732020    1.686416   -1.915801
     80          6           0        8.359803    1.199120    0.224486
     81          1           0        8.084669    1.836389    1.073500
     82          1           0        9.168517    0.541835    0.558061
     83          1           0        8.745253    1.846837   -0.567652
 ---------------------------------------------------------------------
 Rotational constants (GHZ):           0.0901113           0.0396267           0.0355628
 Electric field and nuclear coordinate derivatives read from checkpoint file.
 Rotating derivatives to standard orientation.
 Full mass-weighted force constant matrix:
 Low frequencies ---   -3.5397   -1.3841   -0.0133   -0.0028    0.0183    6.3470
 Low frequencies ---   10.5599   12.9389   16.5389
 Diagonal vibrational polarizability:
      393.2687630     255.7397491     393.7644718
 Harmonic frequencies (cm**-1), IR intensities (KM/Mole), Raman scattering
 activities (A**4/AMU), depolarization ratios for plane and unpolarized
 incident light, reduced masses (AMU), force constants (mDyne/A),
 and normal coordinates:
                      1                      2                      3
                      A                      A                      A
 Frequencies --     10.1019                12.0776                16.4904
 Red. masses --      6.2262                 5.2576                 6.1212
 Frc consts  --      0.0004                 0.0005                 0.0010
 IR Inten    --      1.2029                 0.0782                 2.9303
  Atom  AN      X      Y      Z        X      Y      Z        X      Y      Z
     1   6     0.02   0.04  -0.06     0.02   0.04  -0.05    -0.02  -0.00   0.00
     2   6     0.04   0.07  -0.10     0.01   0.07  -0.05    -0.01   0.03  -0.03
     3   6     0.06   0.11  -0.08    -0.02   0.11  -0.02     0.02   0.05  -0.02
     4   6     0.06   0.13  -0.03    -0.04   0.13   0.02     0.05   0.04   0.01
     5   6     0.04   0.10   0.01    -0.03   0.11   0.02     0.04   0.02   0.03
     6   6     0.02   0.06  -0.00     0.00   0.06  -0.01     0.00  -0.00   0.03
     7   6    -0.00   0.04   0.04     0.01   0.04  -0.00    -0.00  -0.03   0.06
     8   8    -0.10  -0.05   0.02     0.02  -0.03   0.02    -0.02  -0.16   0.09
     9   8    -0.09  -0.02   0.04    -0.05  -0.02   0.03     0.06  -0.03   0.17
    10  16    -0.07  -0.03   0.02    -0.00  -0.02   0.02     0.01  -0.07   0.09
    11   7    -0.04   0.01   0.03     0.01   0.01   0.00    -0.02  -0.08   0.06
    12   6    -0.00   0.05   0.09    -0.04  -0.01  -0.05     0.06  -0.04  -0.02
    13   6    -0.02   0.04   0.10    -0.05  -0.02  -0.06     0.07  -0.03  -0.05
    14   6    -0.04   0.02   0.10    -0.06  -0.01  -0.07     0.06  -0.01  -0.07
    15   6    -0.06   0.00   0.10    -0.04   0.01  -0.06     0.04   0.01  -0.05
    16   6    -0.04   0.01   0.09    -0.02   0.02  -0.05     0.03  -0.00  -0.02
    17   8     0.02   0.06   0.07     0.01   0.01  -0.03     0.05  -0.05   0.04
    18   6    -0.01   0.04   0.09    -0.02   0.01  -0.04     0.04  -0.03  -0.00
    19   6    -0.00   0.05   0.08    -0.00   0.02  -0.03     0.03  -0.04   0.03
    20   8    -0.01   0.03   0.08    -0.00   0.03  -0.03    -0.00  -0.03   0.04
    21   6    -0.00   0.03   0.06     0.00   0.03  -0.02    -0.00  -0.03   0.05
    22   7     0.00   0.02   0.04     0.01   0.02  -0.01    -0.01  -0.03   0.04
    23   6     0.07   0.00   0.01    -0.01   0.04  -0.03    -0.01   0.03  -0.02
    24   7    -0.01   0.01   0.04     0.00   0.01  -0.01    -0.00  -0.02   0.03
    25   6     0.00  -0.01  -0.03    -0.01  -0.00   0.05     0.01   0.01   0.03
    26   6    -0.01  -0.01  -0.02     0.05  -0.03  -0.02    -0.02  -0.03  -0.03
    27  15     0.01   0.00   0.00     0.01   0.01  -0.00    -0.01  -0.00   0.00
    28   6     0.09  -0.01  -0.02    -0.02   0.04  -0.04    -0.03   0.06  -0.05
    29   6     0.14  -0.02  -0.01    -0.03   0.07  -0.05    -0.04   0.09  -0.07
    30   6     0.16  -0.01   0.02    -0.05   0.10  -0.06    -0.03   0.09  -0.06
    31   6     0.14   0.01   0.04    -0.05   0.09  -0.05    -0.01   0.07  -0.02
    32   6     0.09   0.01   0.03    -0.03   0.06  -0.03     0.00   0.04  -0.00
    33   6     0.02  -0.03  -0.07    -0.02  -0.01   0.08    -0.00   0.03   0.04
    34   6     0.02  -0.04  -0.10    -0.04  -0.02   0.12     0.01   0.05   0.05
    35   6    -0.00  -0.03  -0.09    -0.04  -0.02   0.12     0.03   0.04   0.06
    36   6    -0.02  -0.02  -0.06    -0.03  -0.01   0.09     0.04   0.02   0.05
    37   6    -0.02  -0.01  -0.03    -0.01  -0.00   0.05     0.03   0.01   0.03
    38   6     0.00   0.00   0.01     0.06  -0.03  -0.06    -0.04  -0.04  -0.06
    39   6    -0.02  -0.00  -0.00     0.09  -0.05  -0.07    -0.06  -0.07  -0.09
    40   6    -0.06  -0.02  -0.04     0.11  -0.08  -0.04    -0.06  -0.08  -0.09
    41   6    -0.07  -0.03  -0.07     0.09  -0.08   0.00    -0.04  -0.07  -0.05
    42   6    -0.05  -0.03  -0.05     0.06  -0.06   0.01    -0.03  -0.04  -0.03
    43   1     0.01   0.01  -0.07     0.04   0.01  -0.07    -0.05  -0.02   0.00
    44   1     0.04   0.05  -0.14     0.02   0.05  -0.08    -0.03   0.03  -0.05
    45   1     0.07   0.12  -0.11    -0.03   0.13  -0.02     0.02   0.07  -0.04
    46   1     0.07   0.16  -0.01    -0.06   0.17   0.05     0.07   0.06   0.01
    47   1     0.02   0.04   0.07     0.02   0.04   0.01    -0.00  -0.02   0.10
    48   1    -0.02   0.02   0.04     0.03   0.01  -0.01    -0.01  -0.09   0.05
    49   1     0.02   0.07   0.08    -0.03  -0.02  -0.05     0.07  -0.07  -0.01
    50   1    -0.01   0.05   0.10    -0.06  -0.04  -0.07     0.08  -0.05  -0.07
    51   1    -0.05   0.01   0.11    -0.07  -0.01  -0.08     0.07   0.00  -0.09
    52   1    -0.08  -0.01   0.10    -0.04   0.02  -0.07     0.04   0.03  -0.06
    53   1    -0.05   0.00   0.09    -0.01   0.04  -0.04     0.02   0.01  -0.00
    54   1     0.07  -0.02  -0.04    -0.00   0.02  -0.03    -0.04   0.05  -0.07
    55   1     0.16  -0.03  -0.03    -0.04   0.07  -0.06    -0.06   0.11  -0.10
    56   1     0.20  -0.01   0.02    -0.07   0.12  -0.08    -0.03   0.12  -0.07
    57   1     0.16   0.01   0.06    -0.06   0.11  -0.06     0.00   0.07  -0.01
    58   1     0.07   0.02   0.05    -0.03   0.06  -0.03     0.02   0.02   0.02
    59   1     0.04  -0.03  -0.08    -0.02  -0.01   0.08    -0.02   0.04   0.03
    60   1     0.03  -0.05  -0.13    -0.05  -0.02   0.15     0.00   0.06   0.06
    61   1    -0.01  -0.04  -0.12    -0.05  -0.02   0.16     0.04   0.05   0.07
    62   1    -0.04  -0.02  -0.05    -0.03  -0.01   0.09     0.06   0.02   0.05
    63   1    -0.03   0.00   0.01    -0.01   0.00   0.02     0.04  -0.01   0.03
    64   1     0.03   0.02   0.04     0.05  -0.00  -0.08    -0.04  -0.03  -0.06
    65   1    -0.01   0.01   0.01     0.10  -0.05  -0.10    -0.07  -0.08  -0.11
    66   1    -0.07  -0.02  -0.05     0.13  -0.10  -0.05    -0.07  -0.10  -0.11
    67   1    -0.10  -0.05  -0.09     0.10  -0.11   0.02    -0.04  -0.08  -0.05
    68   1    -0.06  -0.03  -0.07     0.05  -0.06   0.04    -0.01  -0.03  -0.00
    69   1     0.04   0.12   0.06    -0.04   0.13   0.05     0.06   0.01   0.06
    70   6    -0.05  -0.06  -0.02     0.01  -0.06   0.04    -0.01   0.00   0.02
    71   6    -0.05  -0.04  -0.01    -0.03  -0.05   0.07     0.04   0.06   0.01
    72   6    -0.02  -0.09  -0.06     0.07  -0.10   0.01    -0.08  -0.00  -0.03
    73   6    -0.03  -0.06  -0.04    -0.02  -0.07   0.08     0.03   0.12  -0.05
    74   1    -0.07  -0.01   0.02    -0.07  -0.02   0.09     0.09   0.07   0.05
    75   6    -0.00  -0.11  -0.09     0.08  -0.12   0.03    -0.09   0.05  -0.08
    76   1    -0.02  -0.11  -0.07     0.10  -0.11  -0.01    -0.12  -0.05  -0.02
    77   6    -0.00  -0.09  -0.08     0.03  -0.11   0.06    -0.04   0.11  -0.10
    78   1    -0.03  -0.04  -0.03    -0.06  -0.07   0.11     0.07   0.16  -0.06
    79   1     0.02  -0.14  -0.12     0.12  -0.15   0.01    -0.15   0.05  -0.12
    80   6     0.02  -0.10  -0.11     0.04  -0.13   0.07    -0.05   0.17  -0.16
    81   1     0.02  -0.03  -0.17    -0.00   0.01  -0.05    -0.02   0.12  -0.12
    82   1    -0.02  -0.11  -0.05    -0.04  -0.13   0.24     0.01   0.20  -0.25
    83   1     0.06  -0.18  -0.16     0.16  -0.26   0.02    -0.15   0.22  -0.17
                      4                      5                      6
                      A                      A                      A
 Frequencies --     26.3219                28.1818                29.3006
 Red. masses --      4.0139                 4.8059                 1.1576
 Frc consts  --      0.0016                 0.0022                 0.0006
 IR Inten    --      0.5226                 0.0652                 0.6226
  Atom  AN      X      Y      Z        X      Y      Z        X      Y      Z
     1   6    -0.01   0.03  -0.08     0.02   0.01   0.00     0.00  -0.01   0.02
     2   6    -0.04   0.09  -0.08     0.03   0.01  -0.00     0.01  -0.02   0.02
     3   6    -0.06   0.14  -0.04     0.03   0.00  -0.00     0.01  -0.04   0.02
     4   6    -0.04   0.15  -0.01     0.03   0.00  -0.01     0.00  -0.04   0.00
     5   6    -0.01   0.09  -0.01     0.03   0.01  -0.00    -0.00  -0.03   0.00
     6   6     0.00   0.03  -0.04     0.02   0.01  -0.00    -0.00  -0.01   0.01
     7   6     0.02  -0.01  -0.03     0.02   0.01  -0.00    -0.00  -0.00   0.01
     8   8     0.05   0.01  -0.03     0.01   0.06  -0.02     0.00  -0.01   0.01
     9   8     0.03  -0.01  -0.04     0.01   0.02  -0.04     0.00   0.00   0.01
    10  16     0.03  -0.00  -0.03     0.01   0.03  -0.02     0.00   0.00   0.01
    11   7     0.02  -0.02  -0.03     0.02   0.03  -0.00     0.00   0.00   0.01
    12   6     0.03   0.03   0.05    -0.11  -0.09  -0.04    -0.01  -0.01  -0.00
    13   6     0.07   0.04   0.08    -0.12  -0.10  -0.06    -0.02  -0.01  -0.00
    14   6     0.09   0.03   0.09    -0.07  -0.05  -0.07    -0.02  -0.01  -0.00
    15   6     0.08  -0.01   0.07    -0.00   0.01  -0.07    -0.01  -0.00  -0.00
    16   6     0.05  -0.03   0.04     0.00   0.01  -0.05    -0.01  -0.00  -0.00
    17   8    -0.03  -0.01  -0.00    -0.05  -0.05  -0.02    -0.00  -0.00  -0.00
    18   6     0.02  -0.01   0.03    -0.05  -0.04  -0.04    -0.01  -0.00  -0.00
    19   6    -0.01  -0.02   0.00    -0.03  -0.03  -0.02    -0.00   0.00  -0.00
    20   8    -0.01  -0.04  -0.01     0.01   0.00  -0.02     0.00   0.00  -0.00
    21   6     0.01  -0.04  -0.03     0.02   0.00   0.01    -0.00   0.00   0.00
    22   7     0.01  -0.05  -0.03     0.02  -0.01   0.04    -0.00   0.01   0.00
    23   6    -0.03  -0.04   0.00     0.01   0.01   0.03     0.00   0.01  -0.00
    24   7     0.01  -0.06  -0.01     0.02  -0.01   0.05    -0.00   0.01  -0.00
    25   6     0.02  -0.01   0.00     0.03   0.02   0.03    -0.00   0.00  -0.00
    26   6    -0.03  -0.02   0.00    -0.03   0.00   0.01     0.00   0.01  -0.00
    27  15    -0.00  -0.04  -0.00     0.01   0.00   0.03     0.00   0.01  -0.00
    28   6    -0.06  -0.03   0.01     0.02  -0.00   0.03     0.01   0.00   0.00
    29   6    -0.08  -0.03   0.01     0.03  -0.01   0.04     0.01   0.00   0.00
    30   6    -0.08  -0.05   0.00     0.03  -0.00   0.04     0.01   0.01  -0.00
    31   6    -0.05  -0.07  -0.00     0.02   0.01   0.03     0.00   0.01  -0.00
    32   6    -0.03  -0.07  -0.00     0.01   0.01   0.03    -0.00   0.01  -0.00
    33   6     0.02   0.02  -0.01     0.07   0.07  -0.09     0.00   0.00  -0.01
    34   6     0.04   0.04  -0.01     0.08   0.08  -0.07    -0.00   0.00  -0.01
    35   6     0.07   0.03   0.00     0.06   0.06   0.08    -0.01  -0.00  -0.00
    36   6     0.07   0.00   0.02     0.02   0.02   0.19    -0.01   0.00   0.01
    37   6     0.05  -0.02   0.02     0.01  -0.00   0.17    -0.01   0.00   0.00
    38   6    -0.06  -0.04   0.01    -0.00   0.02   0.06     0.01   0.01   0.00
    39   6    -0.08  -0.03   0.00    -0.06   0.00   0.03     0.01   0.01   0.00
    40   6    -0.08  -0.01  -0.00    -0.14  -0.04  -0.06     0.01   0.01   0.00
    41   6    -0.06   0.01  -0.01    -0.17  -0.06  -0.11    -0.00   0.01  -0.00
    42   6    -0.03   0.00  -0.00    -0.11  -0.04  -0.07    -0.00   0.00  -0.00
    43   1    -0.00  -0.01  -0.10     0.02   0.01   0.00     0.00  -0.00   0.03
    44   1    -0.05   0.08  -0.11     0.03   0.01  -0.00     0.01  -0.02   0.03
    45   1    -0.08   0.18  -0.04     0.03  -0.00  -0.01     0.01  -0.05   0.02
    46   1    -0.05   0.19   0.02     0.03  -0.00  -0.01     0.00  -0.05  -0.00
    47   1     0.05  -0.02  -0.02     0.03   0.01  -0.01    -0.01  -0.00   0.00
    48   1     0.02  -0.01  -0.03    -0.01   0.01  -0.00    -0.00  -0.00   0.00
    49   1     0.01   0.04   0.04    -0.15  -0.13  -0.03    -0.02  -0.01  -0.00
    50   1     0.08   0.07   0.09    -0.17  -0.14  -0.06    -0.03  -0.02  -0.00
    51   1     0.12   0.04   0.11    -0.07  -0.05  -0.08    -0.02  -0.01  -0.01
    52   1     0.10  -0.02   0.08     0.04   0.05  -0.08    -0.01  -0.00  -0.01
    53   1     0.04  -0.05   0.03     0.05   0.06  -0.05    -0.00   0.00  -0.00
    54   1    -0.06  -0.01   0.01     0.03  -0.00   0.04     0.01  -0.00   0.00
    55   1    -0.10  -0.01   0.02     0.04  -0.01   0.04     0.01  -0.00   0.00
    56   1    -0.10  -0.06   0.00     0.03  -0.01   0.04     0.01   0.01  -0.00
    57   1    -0.05  -0.09  -0.01     0.02   0.01   0.03    -0.00   0.01  -0.00
    58   1    -0.01  -0.08  -0.01     0.00   0.02   0.02    -0.00   0.01  -0.00
    59   1     0.00   0.03  -0.03     0.08   0.09  -0.20     0.01   0.00  -0.02
    60   1     0.04   0.07  -0.03     0.11   0.12  -0.16     0.00  -0.00  -0.02
    61   1     0.08   0.05   0.00     0.07   0.07   0.09    -0.01  -0.00  -0.00
    62   1     0.09  -0.01   0.03     0.01  -0.00   0.30    -0.02   0.00   0.01
    63   1     0.05  -0.04   0.03    -0.01  -0.03   0.26    -0.01   0.01   0.01
    64   1    -0.06  -0.05   0.01     0.06   0.05   0.12     0.01   0.01   0.01
    65   1    -0.11  -0.04   0.01    -0.03   0.02   0.06     0.01   0.01   0.01
    66   1    -0.10  -0.00  -0.00    -0.18  -0.05  -0.09     0.01   0.01   0.00
    67   1    -0.05   0.03  -0.01    -0.24  -0.09  -0.17    -0.00   0.00  -0.01
    68   1    -0.01   0.01  -0.01    -0.14  -0.06  -0.11    -0.01   0.00  -0.01
    69   1     0.00   0.09   0.02     0.03   0.00  -0.00    -0.00  -0.03  -0.01
    70   6     0.02  -0.00  -0.01     0.02   0.01  -0.01     0.00   0.00   0.00
    71   6    -0.01   0.02   0.02     0.01  -0.00  -0.01     0.01   0.00  -0.01
    72   6     0.05  -0.01  -0.02     0.03   0.02   0.00    -0.00   0.01  -0.00
    73   6    -0.02   0.03   0.05     0.02  -0.02  -0.00     0.02   0.00  -0.02
    74   1    -0.03   0.03   0.03     0.00  -0.01  -0.02     0.02   0.00  -0.00
    75   6     0.03  -0.01   0.01     0.04   0.00   0.01     0.00   0.00  -0.01
    76   1     0.08  -0.03  -0.04     0.03   0.03   0.01    -0.01   0.00   0.00
    77   6    -0.00   0.02   0.04     0.03  -0.02   0.01     0.01   0.00  -0.02
    78   1    -0.05   0.05   0.07     0.02  -0.03  -0.01     0.03  -0.00  -0.02
    79   1     0.05  -0.02  -0.00     0.05   0.00   0.02     0.00  -0.00  -0.02
    80   6    -0.03   0.04   0.07     0.04  -0.04   0.01     0.00   0.02  -0.03
    81   1    -0.15   0.30  -0.16     0.07  -0.10   0.07    -0.15   0.45  -0.40
    82   1    -0.15   0.07   0.41     0.06  -0.06  -0.07    -0.19   0.05   0.50
    83   1     0.17  -0.19  -0.03     0.01   0.02   0.04     0.32  -0.39  -0.21
                      7                      8                      9
                      A                      A                      A
 Frequencies --     32.1176                37.1492                39.1460
 Red. masses --      5.3097                 4.0576                 4.9306
 Frc consts  --      0.0032                 0.0033                 0.0045
 IR Inten    --      0.0222                 0.0571                 0.7883
  Atom  AN      X      Y      Z        X      Y      Z        X      Y      Z
     1   6     0.00  -0.01  -0.01    -0.01  -0.00   0.00     0.01   0.01   0.04
     2   6    -0.00  -0.00  -0.01    -0.01  -0.01   0.01     0.02  -0.01   0.05
     3   6    -0.01   0.01  -0.00    -0.01  -0.01   0.01    -0.00  -0.02   0.05
     4   6    -0.01   0.01   0.00    -0.01  -0.01   0.00    -0.03  -0.01   0.05
     5   6    -0.01   0.00   0.00    -0.01  -0.01   0.00    -0.03   0.01   0.04
     6   6    -0.00  -0.01  -0.00    -0.01  -0.00   0.00    -0.01   0.02   0.04
     7   6     0.01  -0.02  -0.00    -0.01   0.00  -0.00    -0.00   0.03   0.02
     8   8     0.06  -0.12   0.05    -0.01  -0.01   0.00     0.04   0.05   0.03
     9   8     0.04  -0.02   0.10    -0.01  -0.00   0.01     0.04   0.07   0.04
    10  16     0.04  -0.05   0.05    -0.01  -0.00   0.00     0.04   0.06   0.04
    11   7     0.02  -0.04  -0.00    -0.01  -0.00  -0.00     0.03   0.06   0.03
    12   6    -0.11  -0.02   0.07     0.07   0.05  -0.00     0.02   0.03   0.00
    13   6    -0.14  -0.04   0.12     0.09   0.06  -0.01     0.03   0.04  -0.00
    14   6    -0.10  -0.07   0.14     0.07   0.05  -0.01    -0.00   0.03  -0.00
    15   6    -0.03  -0.08   0.11     0.03   0.03  -0.00    -0.03   0.01   0.00
    16   6    -0.01  -0.05   0.05     0.01   0.01   0.00    -0.04   0.01   0.01
    17   8    -0.02   0.02  -0.02     0.01   0.01   0.00    -0.01   0.01   0.01
    18   6    -0.04  -0.02   0.04     0.03   0.02   0.00    -0.01   0.02   0.01
    19   6    -0.02  -0.00  -0.01     0.01   0.01   0.00    -0.02   0.01   0.01
    20   8     0.02  -0.01  -0.03    -0.00   0.00   0.00    -0.03   0.01   0.02
    21   6     0.01  -0.01  -0.03    -0.01   0.00  -0.00    -0.01   0.01   0.01
    22   7     0.00  -0.00  -0.05    -0.01   0.01  -0.00    -0.00  -0.01  -0.00
    23   6    -0.02   0.00  -0.05    -0.02  -0.00   0.02    -0.04  -0.03   0.01
    24   7     0.01   0.01  -0.07    -0.01   0.00   0.00    -0.02  -0.02  -0.00
    25   6     0.01   0.02  -0.05    -0.01  -0.01   0.01    -0.02  -0.02  -0.00
    26   6     0.03   0.04  -0.02     0.02  -0.01   0.02    -0.03  -0.02   0.01
    27  15     0.01   0.02  -0.05    -0.01  -0.00   0.02    -0.02  -0.02   0.01
    28   6    -0.01  -0.02  -0.01     0.03  -0.06   0.07    -0.06  -0.01   0.01
    29   6    -0.05  -0.02  -0.01     0.00  -0.05   0.06    -0.09  -0.00   0.00
    30   6    -0.09   0.00  -0.05    -0.08   0.01   0.00    -0.10  -0.01  -0.01
    31   6    -0.10   0.02  -0.09    -0.13   0.07  -0.05    -0.08  -0.02  -0.01
    32   6    -0.07   0.02  -0.08    -0.10   0.06  -0.04    -0.05  -0.03  -0.01
    33   6     0.04   0.03  -0.14    -0.00  -0.00  -0.00    -0.03  -0.03   0.03
    34   6     0.03   0.03  -0.12     0.01   0.00  -0.04    -0.03  -0.04   0.01
    35   6    -0.00   0.01  -0.01     0.02   0.00  -0.07    -0.01  -0.03  -0.04
    36   6    -0.03   0.00   0.07     0.01   0.00  -0.06    -0.01  -0.02  -0.07
    37   6    -0.03   0.00   0.05     0.00  -0.00  -0.02    -0.01  -0.01  -0.05
    38   6     0.05   0.06   0.01     0.16   0.07   0.10    -0.06  -0.03  -0.00
    39   6     0.07   0.09   0.05     0.18   0.05   0.09    -0.09  -0.04  -0.02
    40   6     0.08   0.11   0.05     0.05  -0.06  -0.01    -0.09  -0.03  -0.02
    41   6     0.05   0.09   0.01    -0.09  -0.15  -0.10    -0.06  -0.01  -0.01
    42   6     0.03   0.06  -0.03    -0.10  -0.13  -0.08    -0.03  -0.01   0.00
    43   1     0.01  -0.02  -0.02    -0.00  -0.00   0.00     0.03   0.01   0.04
    44   1    -0.00  -0.00  -0.02    -0.01  -0.01   0.01     0.04  -0.02   0.05
    45   1    -0.01   0.02  -0.00    -0.01  -0.01   0.01     0.01  -0.04   0.05
    46   1    -0.02   0.02   0.01    -0.02  -0.01   0.00    -0.04  -0.01   0.05
    47   1    -0.00  -0.01   0.01    -0.01   0.00  -0.00     0.01   0.02  -0.00
    48   1     0.06  -0.04  -0.01    -0.01  -0.00  -0.00     0.01   0.04   0.02
    49   1    -0.14   0.01   0.06     0.09   0.05  -0.01     0.04   0.04   0.00
    50   1    -0.20  -0.04   0.15     0.13   0.08  -0.01     0.05   0.05  -0.01
    51   1    -0.13  -0.09   0.18     0.09   0.06  -0.01     0.00   0.03  -0.01
    52   1    -0.00  -0.10   0.12     0.02   0.02  -0.00    -0.06   0.00   0.00
    53   1     0.05  -0.06   0.03    -0.02  -0.01   0.01    -0.06  -0.01   0.01
    54   1     0.02  -0.03   0.02     0.09  -0.10   0.11    -0.05  -0.01   0.02
    55   1    -0.04  -0.03   0.02     0.04  -0.09   0.10    -0.11   0.01   0.01
    56   1    -0.12   0.01  -0.05    -0.10   0.02  -0.00    -0.13   0.00  -0.02
    57   1    -0.14   0.04  -0.12    -0.20   0.12  -0.09    -0.09  -0.03  -0.03
    58   1    -0.08   0.04  -0.11    -0.14   0.10  -0.07    -0.03  -0.04  -0.01
    59   1     0.06   0.04  -0.22    -0.01  -0.01   0.01    -0.04  -0.04   0.07
    60   1     0.05   0.04  -0.19     0.01   0.00  -0.05    -0.03  -0.05   0.04
    61   1    -0.01   0.01   0.00     0.03   0.01  -0.10    -0.01  -0.03  -0.05
    62   1    -0.06  -0.01   0.16     0.02   0.01  -0.08     0.00  -0.01  -0.11
    63   1    -0.05  -0.01   0.12    -0.00  -0.00  -0.01    -0.00  -0.01  -0.08
    64   1     0.05   0.05   0.02     0.25   0.16   0.18    -0.06  -0.04  -0.00
    65   1     0.09   0.11   0.08     0.29   0.12   0.16    -0.11  -0.05  -0.03
    66   1     0.10   0.13   0.08     0.07  -0.08  -0.02    -0.11  -0.04  -0.04
    67   1     0.05   0.10   0.00    -0.19  -0.24  -0.18    -0.06  -0.01  -0.01
    68   1     0.01   0.04  -0.06    -0.21  -0.20  -0.15    -0.01   0.01   0.01
    69   1    -0.01   0.01   0.01    -0.01  -0.01  -0.00    -0.05   0.02   0.04
    70   6     0.03  -0.02   0.03    -0.01  -0.00   0.00     0.05   0.05   0.02
    71   6     0.04   0.01   0.04    -0.01  -0.00   0.00     0.06   0.05   0.01
    72   6     0.02  -0.04  -0.01    -0.01  -0.00   0.00     0.08   0.02  -0.02
    73   6     0.04   0.03   0.01    -0.01   0.00   0.00     0.11   0.00  -0.04
    74   1     0.05   0.03   0.07    -0.01  -0.00   0.00     0.04   0.08   0.05
    75   6     0.02  -0.02  -0.03    -0.02   0.00   0.00     0.13  -0.03  -0.07
    76   1     0.02  -0.07  -0.01    -0.01  -0.00   0.00     0.08   0.02  -0.01
    77   6     0.03   0.02  -0.02    -0.01   0.00   0.00     0.15  -0.05  -0.09
    78   1     0.04   0.06   0.02    -0.01   0.00   0.00     0.12  -0.01  -0.05
    79   1     0.01  -0.03  -0.06    -0.02   0.00   0.00     0.16  -0.07  -0.11
    80   6     0.03   0.03  -0.06    -0.02   0.01   0.00     0.24  -0.12  -0.18
    81   1     0.10  -0.11   0.07    -0.02   0.01   0.00     0.36  -0.13  -0.14
    82   1     0.11   0.03  -0.24    -0.02   0.01   0.00     0.24  -0.18  -0.28
    83   1    -0.10   0.16  -0.01    -0.02   0.01   0.00     0.20  -0.12  -0.20
                     10                     11                     12
                      A                      A                      A
 Frequencies --     44.4644                48.7653                49.4569
 Red. masses --      5.1485                 4.5860                 5.1644
 Frc consts  --      0.0060                 0.0064                 0.0074
 IR Inten    --      0.4894                 0.2858                 0.2015
  Atom  AN      X      Y      Z        X      Y      Z        X      Y      Z
     1   6     0.01   0.02  -0.02     0.01  -0.03   0.02    -0.00   0.00  -0.05
     2   6     0.03   0.03  -0.05    -0.03  -0.01   0.06     0.01  -0.01  -0.06
     3   6     0.08   0.03  -0.07    -0.11   0.03   0.10     0.04  -0.02  -0.08
     4   6     0.11   0.02  -0.05    -0.14   0.04   0.11     0.05  -0.03  -0.09
     5   6     0.09   0.01  -0.01    -0.10   0.02   0.07     0.04  -0.03  -0.08
     6   6     0.04   0.01   0.00    -0.02  -0.01   0.02     0.01  -0.01  -0.06
     7   6     0.02  -0.01   0.03    -0.00  -0.02   0.00     0.01  -0.00  -0.05
     8   8    -0.02   0.06  -0.01    -0.03   0.02  -0.02     0.10  -0.09   0.01
     9   8     0.01  -0.01  -0.06    -0.01  -0.00  -0.04     0.04  -0.01   0.05
    10  16    -0.00   0.02  -0.01    -0.01   0.00  -0.02     0.06  -0.04   0.01
    11   7    -0.00  -0.00   0.02     0.01   0.01   0.00     0.02  -0.04  -0.05
    12   6     0.02  -0.05  -0.01    -0.13  -0.08   0.02    -0.09   0.00   0.02
    13   6    -0.00  -0.06  -0.04    -0.09  -0.06   0.03    -0.10  -0.01   0.06
    14   6    -0.05  -0.06  -0.05     0.08   0.02   0.03    -0.02  -0.01   0.08
    15   6    -0.07  -0.04  -0.03     0.20   0.08   0.00     0.07  -0.00   0.04
    16   6    -0.05  -0.03   0.00     0.16   0.06  -0.01     0.08   0.01  -0.00
    17   8     0.05  -0.03   0.05    -0.10  -0.06  -0.01    -0.04   0.02  -0.06
    18   6    -0.00  -0.04   0.01    -0.01  -0.02  -0.00    -0.00   0.01  -0.02
    19   6     0.02  -0.03   0.04    -0.04  -0.04  -0.01    -0.00   0.01  -0.06
    20   8     0.00  -0.02   0.05     0.01  -0.02  -0.02     0.03   0.01  -0.07
    21   6     0.02  -0.02   0.05     0.00  -0.02   0.00     0.01   0.01  -0.06
    22   7     0.02  -0.03   0.05    -0.00  -0.01   0.03     0.01   0.03  -0.02
    23   6     0.01   0.00   0.02     0.03   0.01   0.01     0.01   0.03   0.03
    24   7     0.01  -0.03   0.06     0.00  -0.01   0.04     0.01   0.04   0.02
    25   6     0.02  -0.03   0.00     0.01  -0.01   0.01    -0.02   0.01   0.02
    26   6    -0.01  -0.02   0.04     0.01  -0.02   0.02    -0.02   0.03   0.02
    27  15     0.02  -0.03   0.04     0.01  -0.01   0.03     0.00   0.04   0.03
    28   6     0.04  -0.02   0.01     0.06  -0.01  -0.00     0.06  -0.00   0.04
    29   6    -0.02   0.06  -0.04     0.07   0.02  -0.02     0.07  -0.01   0.05
    30   6    -0.11   0.18  -0.09     0.05   0.08  -0.02     0.04   0.03   0.03
    31   6    -0.13   0.20  -0.08     0.01   0.11  -0.01    -0.00   0.07   0.02
    32   6    -0.07   0.11  -0.02     0.00   0.07   0.01    -0.02   0.07   0.02
    33   6     0.04  -0.05  -0.03     0.01  -0.02   0.00    -0.05  -0.05   0.15
    34   6     0.04  -0.06  -0.10     0.02  -0.02  -0.05    -0.09  -0.08   0.15
    35   6     0.03  -0.05  -0.14     0.03  -0.01  -0.09    -0.09  -0.05   0.02
    36   6     0.01  -0.03  -0.09     0.02  -0.00  -0.08    -0.06   0.01  -0.12
    37   6     0.01  -0.03  -0.02     0.01  -0.00  -0.03    -0.02   0.04  -0.12
    38   6    -0.07  -0.05   0.04    -0.00  -0.03   0.00    -0.03   0.03   0.03
    39   6    -0.09  -0.02   0.05     0.01  -0.02   0.01    -0.09   0.01  -0.01
    40   6    -0.06   0.04   0.07     0.03  -0.01   0.03    -0.14  -0.01  -0.06
    41   6    -0.00   0.07   0.08     0.04  -0.00   0.05    -0.12  -0.01  -0.06
    42   6     0.02   0.04   0.06     0.03  -0.01   0.04    -0.07   0.02  -0.02
    43   1    -0.03   0.02  -0.01     0.06  -0.06  -0.01    -0.02   0.02  -0.03
    44   1     0.01   0.03  -0.07    -0.01  -0.02   0.06     0.00   0.00  -0.05
    45   1     0.10   0.04  -0.09    -0.15   0.04   0.14     0.05  -0.03  -0.09
    46   1     0.15   0.02  -0.06    -0.20   0.08   0.14     0.08  -0.05  -0.10
    47   1     0.04  -0.01   0.03     0.00  -0.02  -0.01    -0.01   0.00  -0.04
    48   1    -0.02  -0.01   0.03    -0.04  -0.02  -0.00     0.07  -0.02  -0.06
    49   1     0.06  -0.06   0.00    -0.26  -0.15   0.02    -0.15   0.00   0.01
    50   1     0.02  -0.08  -0.05    -0.19  -0.11   0.05    -0.17  -0.02   0.09
    51   1    -0.06  -0.07  -0.07     0.11   0.04   0.04    -0.03  -0.02   0.12
    52   1    -0.11  -0.03  -0.04     0.34   0.15  -0.00     0.13  -0.00   0.05
    53   1    -0.06  -0.02   0.02     0.26   0.11  -0.03     0.14   0.01  -0.03
    54   1     0.10  -0.10   0.04     0.07  -0.05  -0.00     0.08  -0.03   0.05
    55   1     0.01   0.05  -0.05     0.10   0.01  -0.03     0.11  -0.04   0.06
    56   1    -0.15   0.25  -0.13     0.05   0.11  -0.04     0.05   0.03   0.03
    57   1    -0.20   0.28  -0.11    -0.01   0.15  -0.01    -0.03   0.11   0.00
    58   1    -0.10   0.12  -0.01    -0.02   0.09   0.02    -0.05   0.10   0.00
    59   1     0.05  -0.06  -0.01     0.01  -0.03   0.04    -0.05  -0.07   0.26
    60   1     0.06  -0.07  -0.14     0.03  -0.02  -0.05    -0.11  -0.13   0.25
    61   1     0.04  -0.05  -0.19     0.04  -0.01  -0.14    -0.12  -0.08   0.02
    62   1     0.00  -0.03  -0.12     0.03   0.00  -0.12    -0.06   0.03  -0.22
    63   1    -0.01  -0.01   0.00     0.01   0.00  -0.02     0.00   0.09  -0.21
    64   1    -0.09  -0.09   0.03    -0.02  -0.03  -0.02    -0.00   0.04   0.06
[...]
 Vib (Bot)   50  0.355166D+00         -0.449569         -1.035170
 Vib (Bot)   51  0.353227D+00         -0.451946         -1.040645
 Vib (Bot)   52  0.349288D+00         -0.456816         -1.051857
 Vib (Bot)   53  0.343095D+00         -0.464585         -1.069747
 Vib (Bot)   54  0.323106D+00         -0.490654         -1.129773
 Vib (Bot)   55  0.312174D+00         -0.505603         -1.164194
 Vib (Bot)   56  0.308204D+00         -0.511162         -1.176994
 Vib (Bot)   57  0.298368D+00         -0.525248         -1.209429
 Vib (Bot)   58  0.285330D+00         -0.544653         -1.254109
 Vib (Bot)   59  0.278206D+00         -0.555633         -1.279392
 Vib (Bot)   60  0.266917D+00         -0.573624         -1.320819
 Vib (Bot)   61  0.254906D+00         -0.593620         -1.366861
 Vib (Bot)   62  0.243710D+00         -0.613127         -1.411778
 Vib (Bot)   63  0.239148D+00         -0.621334         -1.430674
 Vib (V=0)                            19.349089         44.552923
 Vib (V=0)    1  0.186100D+02          1.269747          2.923700
 Vib (V=0)    2  0.156492D+02          1.194491          2.750417
 Vib (V=0)    3  0.115987D+02          1.064409          2.450893
 Vib (V=0)    4  0.746052D+01          0.872769          2.009625
 Vib (V=0)    5  0.700278D+01          0.845270          1.946307
 Vib (V=0)    6  0.675548D+01          0.829656          1.910353
 Vib (V=0)    7  0.620928D+01          0.793041          1.826044
 Vib (V=0)    8  0.544026D+01          0.735619          1.693826
 Vib (V=0)    9  0.519003D+01          0.715170          1.646740
 Vib (V=0)   10  0.463361D+01          0.665919          1.533335
 Vib (V=0)   11  0.427277D+01          0.630710          1.452263
 Vib (V=0)   12  0.422064D+01          0.625379          1.439987
 Vib (V=0)   13  0.417793D+01          0.620961          1.429815
 Vib (V=0)   14  0.359199D+01          0.555335          1.278707
 Vib (V=0)   15  0.343749D+01          0.536241          1.234741
 Vib (V=0)   16  0.324066D+01          0.510634          1.175778
 Vib (V=0)   17  0.313192D+01          0.495810          1.141645
 Vib (V=0)   18  0.296706D+01          0.472326          1.087571
 Vib (V=0)   19  0.278485D+01          0.444801          1.024192
 Vib (V=0)   20  0.261423D+01          0.417344          0.960971
 Vib (V=0)   21  0.248859D+01          0.395954          0.911718
 Vib (V=0)   22  0.210499D+01          0.323250          0.744310
 Vib (V=0)   23  0.195716D+01          0.291626          0.671493
 Vib (V=0)   24  0.179496D+01          0.254055          0.584982
 Vib (V=0)   25  0.167887D+01          0.225016          0.518118
 Vib (V=0)   26  0.164423D+01          0.215962          0.497270
 Vib (V=0)   27  0.160457D+01          0.205358          0.472854
 Vib (V=0)   28  0.158416D+01          0.199798          0.460053
 Vib (V=0)   29  0.154471D+01          0.188846          0.434835
 Vib (V=0)   30  0.142412D+01          0.153547          0.353555
 Vib (V=0)   31  0.141752D+01          0.151528          0.348907
 Vib (V=0)   32  0.138242D+01          0.140640          0.323834
 Vib (V=0)   33  0.134907D+01          0.130035          0.299417
 Vib (V=0)   34  0.131768D+01          0.119810          0.275872
 Vib (V=0)   35  0.130332D+01          0.115052          0.264918
 Vib (V=0)   36  0.129707D+01          0.112963          0.260106
 Vib (V=0)   37  0.127801D+01          0.106535          0.245306
 Vib (V=0)   38  0.126768D+01          0.103010          0.237190
 Vib (V=0)   39  0.126035D+01          0.100492          0.231391
 Vib (V=0)   40  0.123455D+01          0.091507          0.210703
 Vib (V=0)   41  0.118667D+01          0.074329          0.171150
 Vib (V=0)   42  0.117254D+01          0.069127          0.159172
 Vib (V=0)   43  0.116022D+01          0.064542          0.148612
 Vib (V=0)   44  0.113708D+01          0.055790          0.128460
 Vib (V=0)   45  0.112355D+01          0.050591          0.116489
 Vib (V=0)   46  0.111976D+01          0.049124          0.113111
 Vib (V=0)   47  0.111599D+01          0.047661          0.109744
 Vib (V=0)   48  0.111535D+01          0.047410          0.109166
 Vib (V=0)   49  0.111375D+01          0.046786          0.107728
 Vib (V=0)   50  0.111330D+01          0.046614          0.107333
 Vib (V=0)   51  0.111218D+01          0.046177          0.106326
 Vib (V=0)   52  0.110992D+01          0.045292          0.104288
 Vib (V=0)   53  0.110639D+01          0.043910          0.101107
 Vib (V=0)   54  0.109531D+01          0.039538          0.091040
 Vib (V=0)   55  0.108945D+01          0.037208          0.085674
 Vib (V=0)   56  0.108736D+01          0.036373          0.083751
 Vib (V=0)   57  0.108226D+01          0.034330          0.079049
 Vib (V=0)   58  0.107569D+01          0.031685          0.072958
 Vib (V=0)   59  0.107219D+01          0.030271          0.069701
 Vib (V=0)   60  0.106678D+01          0.028077          0.064649
 Vib (V=0)   61  0.106123D+01          0.025809          0.059427
 Vib (V=0)   62  0.105623D+01          0.023759          0.054708
 Vib (V=0)   63  0.105425D+01          0.022943          0.052828
 Electronic      0.100000D+01          0.000000          0.000000
 Translational   0.513686D+09          8.710698         20.057123
 Rotational      0.638615D+08          7.805239         17.972228
 ***** Axes restored to original set *****
 -------------------------------------------------------------------
 Center     Atomic                   Forces (Hartrees/Bohr)
 Number     Number              X              Y              Z
 -------------------------------------------------------------------
      1        6           0.000001511    0.000003534   -0.000001042
      2        6          -0.000001849   -0.000000034   -0.000002660
      3        6          -0.000000804   -0.000002096    0.000002029
      4        6           0.000002051    0.000000938   -0.000000262
      5        6          -0.000000351   -0.000001336   -0.000001638
      6        6          -0.000005058   -0.000006048    0.000003139
      7        6           0.000009667    0.000016355    0.000012916
      8        8           0.000000653    0.000001187   -0.000002187
      9        8           0.000000205    0.000001368   -0.000001262
     10       16           0.000006271    0.000001467   -0.000001390
     11        7          -0.000015082   -0.000020544   -0.000003053
     12        6          -0.000002098    0.000004467   -0.000001965
     13        6           0.000001624   -0.000001482    0.000002276
     14        6           0.000000226    0.000000084    0.000002797
     15        6          -0.000002124    0.000001617    0.000002058
     16        6           0.000000420    0.000001001    0.000001581
     17        8           0.000003987   -0.000001544   -0.000006426
     18        6           0.000003724   -0.000004395    0.000001343
     19        6          -0.000008574    0.000005236   -0.000003702
     20        8           0.000005410    0.000005901    0.000005010
     21        6          -0.000000938   -0.000005460    0.000002182
     22        7           0.000001930   -0.000004180   -0.000009845
     23        6          -0.000010161   -0.000004822    0.000005967
     24        7          -0.000002835    0.000004983    0.000016054
     25        6           0.000000139    0.000000964    0.000000203
     26        6           0.000006388   -0.000006797   -0.000001085
     27       15          -0.000004572   -0.000004146   -0.000003829
     28        6           0.000006233    0.000004138   -0.000000877
     29        6           0.000001778   -0.000001488   -0.000004854
     30        6          -0.000003259   -0.000001672   -0.000000385
     31        6          -0.000000340    0.000002733    0.000000930
     32        6           0.000006084    0.000004125   -0.000001175
     33        6          -0.000003343    0.000002174    0.000001157
     34        6           0.000001217   -0.000002261    0.000000088
     35        6           0.000000934    0.000000926    0.000000349
     36        6          -0.000000918    0.000002060    0.000002613
     37        6           0.000000671   -0.000001450    0.000000214
     38        6          -0.000002287    0.000001722   -0.000003896
     39        6          -0.000002242   -0.000000813    0.000001707
     40        6           0.000003203   -0.000004423   -0.000000687
     41        6          -0.000000711    0.000001609   -0.000002418
     42        6          -0.000001447   -0.000000765    0.000001252
     43        1           0.000001129    0.000000732    0.000002278
     44        1           0.000000214   -0.000000252    0.000001249
     45        1           0.000000212   -0.000001155    0.000000547
     46        1           0.000000149   -0.000001313   -0.000000085
     47        1          -0.000000921   -0.000000989   -0.000002446
     48        1           0.000004616    0.000007605   -0.000004324
     49        1          -0.000000275    0.000000465    0.000001295
     50        1          -0.000000761    0.000000990    0.000001781
     51        1          -0.000000177    0.000000845    0.000001920
     52        1           0.000000108    0.000000196    0.000001436
     53        1           0.000000559   -0.000001989    0.000000767
     54        1          -0.000001302    0.000000501   -0.000000648
     55        1          -0.000000479    0.000001011   -0.000000807
     56        1           0.000000613    0.000001265   -0.000001407
     57        1           0.000000407    0.000001586   -0.000000941
     58        1          -0.000000497    0.000000582   -0.000003729
     59        1          -0.000000062   -0.000000344   -0.000001734
     60        1          -0.000000318    0.000000984    0.000000865
     61        1          -0.000000465    0.000000806    0.000001497
     62        1           0.000001111    0.000000143    0.000000306
     63        1          -0.000002420   -0.000000150   -0.000000185
     64        1           0.000000717   -0.000001025    0.000000364
     65        1           0.000000793   -0.000001215   -0.000001467
     66        1          -0.000000487   -0.000001621   -0.000000926
     67        1           0.000000025   -0.000002080    0.000000177
     68        1           0.000000664   -0.000000119    0.000000360
     69        1          -0.000000053   -0.000000981   -0.000000749
     70        6           0.000000700   -0.000001403   -0.000003319
     71        6           0.000002020   -0.000000650   -0.000002428
     72        6           0.000000812    0.000000562   -0.000000350
     73        6          -0.000000913   -0.000001673   -0.000000519
     74        1          -0.000000213    0.000000734    0.000000556
     75        6           0.000000087    0.000001147    0.000000067
     76        1          -0.000000537    0.000001413   -0.000000019
     77        6           0.000000520    0.000000416   -0.000000270
     78        1           0.000000059   -0.000000547   -0.000000679
     79        1          -0.000000556    0.000001590    0.000000132
     80        6          -0.000000615    0.000000376    0.000000420
     81        1           0.000000973    0.000000776   -0.000000404
     82        1          -0.000000593   -0.000000130    0.000000265
     83        1          -0.000000176    0.000000074   -0.000000073
 -------------------------------------------------------------------
 Cartesian Forces:  Max     0.000020544 RMS     0.000003458
 FormGI is forming the generalized inverse of G from B-inverse, IUseBI=4.

 ----------------------------------------------------------------------

 Electric dipole moment (input orientation):
 (Debye = 10**-18 statcoulomb cm , SI units = C m)
                  (au)            (Debye)         (10**-30 SI)
   Tot        0.373663D+01      0.949756D+01      0.316804D+02
   x         -0.233162D+01     -0.592640D+01     -0.197683D+02
   y          0.273090D+01      0.694125D+01      0.231535D+02
   z          0.103348D+01      0.262685D+01      0.876224D+01

 Dipole polarizability, Alpha (input orientation).
 (esu units = cm**3 , SI units = C**2 m**2 J**-1)
 Alpha(0;0):
               (au)            (10**-24 esu)      (10**-40 SI)
   iso        0.591474D+03      0.876473D+02      0.975208D+02
   aniso      0.100024D+03      0.148220D+02      0.164917D+02
   xx         0.626667D+03      0.928625D+02      0.103323D+03
   yx         0.268880D+02      0.398439D+01      0.443323D+01
   yy         0.590530D+03      0.875075D+02      0.973652D+02
   zx         0.131392D+02      0.194704D+01      0.216637D+01
   zy        -0.351150D+02     -0.520351D+01     -0.578969D+01
   zz         0.557224D+03      0.825720D+02      0.918738D+02

 ----------------------------------------------------------------------

 Dipole orientation:
     6          6.50532739          2.57790624         -1.72649534
     6          9.04521184          3.21366418         -1.54238284
     6         10.89189743          1.33907260         -1.68079227
     6         10.18072382         -1.17083876         -2.00551360
     6          7.63109901         -1.80175428         -2.19932664
     6          5.77753433          0.06341077         -2.06415667
     6          3.00935400         -0.67183608         -2.31812560
     8          0.04353758          2.37999972         -8.25446012
     8          2.65554250         -1.62839229         -7.93277350
    16          2.13567413          0.96366660         -7.15000797
     7          1.56296679          0.88933157         -4.10633127
     6         -2.15052629          6.18264531          4.64119091
     6         -2.54904349          7.24624955          7.00847356
     6         -0.98684613          6.58701955          9.02445737
     6          0.97568579          4.86331675          8.67382874
     6          1.37393285          3.78622760          6.31130915
     8         -1.24421105          3.72356913         -0.04114841
     6         -0.19335306          4.44671858          4.29072538
     6          0.07138061          3.24431925          1.78013428
     8          2.01923890          1.58360361          1.63840896
     6          1.59502952         -0.54367832          0.13840951
     7         -0.05147797         -2.17587302          0.76829885
     6         -6.06211919         -3.10904334          0.62715088
     7         -1.39174858         -1.59757208          2.92196519
     6         -5.41968426         -2.12932868          6.04705974
     6         -3.32651783         -6.70991497          3.70060362
    15         -3.87311116         -3.35204318          3.26049584
     6         -7.89113904         -4.95249895          0.13411073
     6         -9.56960924         -4.63512373         -1.86436528
     6         -9.41508313         -2.49093541         -3.38493580
     6         -7.58601950         -0.65918401         -2.90680164
     6         -5.91166411         -0.95819945         -0.90191260
     6         -7.83356532         -2.97622864          6.71205668
     6         -9.02333207         -2.00028500          8.84176124
     6         -7.81676868         -0.16845262         10.30145596
     6         -5.41789292          0.68304622          9.63492269
     6         -4.21161489         -0.29555282          7.51295169
     6         -2.60283607         -8.16124795          1.60749530
     6         -1.98655875        -10.69628524          1.91506577
     6         -2.08883829        -11.79723813          4.30592959
     6         -2.79756011        -10.35994843          6.39286429
     6         -3.40731455         -7.81810285          6.09725766
     1          5.08003865          4.05203097         -1.66520587
     1          9.58795264          5.17916802         -1.31222827
     1         12.87786418          1.83928164         -1.54847046
     1         11.60685143         -2.64137781         -2.12625554
     1          2.88015459         -2.62698909         -2.96788375
     1          0.57241133          2.37773051         -3.39542143
     1         -3.35984549          6.65995292          3.05636624
     1         -4.07968608          8.58280116          7.28502060
     1         -1.30046177          7.41622637         10.87505292
     1          2.18774278          4.34953683         10.24639026
     1          2.86686945          2.41274837          6.03095307
     1         -7.99418766         -6.64916977          1.28545939
     1        -10.98589860         -6.06952728         -2.24380298
     1        -10.71653428         -2.25396411         -4.95332783
     1         -7.45270002          1.00197792         -4.10251088
     1         -4.47713795          0.46446634         -0.53684701
     1         -8.79452532         -4.38809048          5.57199815
     1        -10.89591054         -2.66062978          9.35533165
     1         -8.75505793          0.59870281         11.95707653
     1         -4.47608593          2.11946225         10.75676295
     1         -2.35047599          0.36541145          6.96907097
     1         -2.52495224         -7.31079178         -0.25856766
     1         -1.43017814        -11.81407231          0.28787875
     1         -1.61443955        -13.77944373          4.54106421
     1         -2.87769402        -11.21548708          8.25537426
     1         -3.95296261         -6.70634966          7.73311189
     1          7.08182586         -3.76157584         -2.47918556
     6          4.94644048          2.73623277         -7.63940572
     6          7.22317049          1.48252742         -8.03247807
     6          4.85853837          5.35701432         -7.43524703
     6          9.43764176          2.87947292         -8.19284002
     1          7.25636907         -0.56002415         -8.17889147
     6          7.09282398          6.72572544         -7.59644379
     1          3.06767793          6.31553255         -7.15057843
     6          9.41148457          5.50945073         -7.95050952
     1         11.22222457          1.90637305         -8.48034621
     1          7.03475785          8.77153502         -7.43432446
     6         11.84607450          6.98302419         -8.00094600
     1         12.79906978          6.85124415         -6.16542914
     1         13.14658657          6.23968389         -9.42635597
     1         11.51616818          8.98384181         -8.39772128

 Electric dipole moment (dipole orientation):
 (Debye = 10**-18 statcoulomb cm , SI units = C m)
                  (au)            (Debye)         (10**-30 SI)
   Tot        0.373663D+01      0.949756D+01      0.316804D+02
   x          0.000000D+00      0.000000D+00      0.000000D+00
   y          0.000000D+00      0.000000D+00      0.000000D+00
   z          0.373663D+01      0.949756D+01      0.316804D+02

 Dipole polarizability, Alpha (dipole orientation).
 (esu units = cm**3 , SI units = C**2 m**2 J**-1)
 Alpha(0;0):
               (au)            (10**-24 esu)      (10**-40 SI)
   iso        0.591474D+03      0.876473D+02      0.975208D+02
   aniso      0.100024D+03      0.148220D+02      0.164917D+02
   xx         0.604109D+03      0.895197D+02      0.996041D+02
   yx         0.311402D+02      0.461451D+01      0.513433D+01
   yy         0.611515D+03      0.906172D+02      0.100825D+03
   zx        -0.358300D+02     -0.530946D+01     -0.590757D+01
   zy         0.163373D+02      0.242093D+01      0.269365D+01
   zz         0.558797D+03      0.828052D+02      0.921332D+02

 ----------------------------------------------------------------------

 This type of calculation cannot be archived.


 A DANDELION FROM A LOVER MEANS MORE THAN AN ORCHID FROM A FRIEND.
 Job cpu time:       0 days  0 hours  0 minutes  2.7 seconds.
 Elapsed time:       0 days  0 hours  0 minutes  0.8 seconds.
 File lengths (MBytes):  RWF=     11 Int=      0 D2E=      0 Chk=     15 Scr=      1
 Normal termination of Gaussian 16 at Sat Apr  4 19:51:28 2020.
