 Entering Gaussian System, Link 0=g16
 Initial command:
 /apps/cent7/gaussian/g16-A.03/g16-haswell/g16/l1.exe "/scratch/brown/finej/0051_imine_mechanism/ts_631gd/acyclic_complete/new_logs_2/Gau-245299.inp" -scrdir="/scratch/brown/finej/0051_imine_mechanism/ts_631gd/acyclic_complete/new_logs_2/"
 Entering Link 1 = /apps/cent7/gaussian/g16-A.03/g16-haswell/g16/l1.exe PID=    245300.
  
 Copyright (c) 1988,1990,1992,1993,1995,1998,2003,2009,2016,
            Gaussian, Inc.  All Rights Reserved.
  
 This is part of the Gaussian(R) 16 program.  It is based on
 the Gaussian(R) 09 system (copyright 2009, Gaussian, Inc.),
 the Gaussian(R) 03 system (copyright 2003, Gaussian, Inc.),
 the Gaussian(R) 98 system (copyright 1998, Gaussian, Inc.),
 the Gaussian(R) 94 system (copyright 1995, Gaussian, Inc.),
 the Gaussian 92(TM) system (copyright 1992, Gaussian, Inc.),
 the Gaussian 90(TM) system (copyright 1990, Gaussian, Inc.),
 the Gaussian 88(TM) system (copyright 1988, Gaussian, Inc.),
 the Gaussian 86(TM) system (copyright 1986, Carnegie Mellon
 University), and the Gaussian 82(TM) system (copyright 1983,
 Carnegie Mellon University). Gaussian is a federally registered
 trademark of Gaussian, Inc.
  
 This software contains proprietary and confidential information,
 including trade secrets, belonging to Gaussian, Inc.
  
 This software is provided under written license and may be
 used, copied, transmitted, or stored only in accord with that
 written license.
  
 The following legend is applicable only to US Government
 contracts under FAR:
  
                    RESTRICTED RIGHTS LEGEND
  
 Use, reproduction and disclosure by the US Government is
 subject to restrictions as set forth in subparagraphs (a)
 and (c) of the Commercial Computer Software - Restricted
 Rights clause in FAR 52.227-19.
  
 Gaussian, Inc.
 340 Quinnipiac St., Bldg. 40, Wallingford CT 06492
  
  
 ---------------------------------------------------------------
 Warning -- This program may not be used in any manner that
 competes with the business of Gaussian, Inc. or will provide
 assistance to any competitor of Gaussian, Inc.  The licensee
 of this program is prohibited from giving any competitor of
 Gaussian, Inc. access to this program.  By using this program,
 the user acknowledges that Gaussian, Inc. is engaged in the
 business of creating and licensing software in the field of
 computational chemistry and represents and warrants to the
 licensee that it is not a competitor of Gaussian, Inc. and that
 it will not use this program in any manner prohibited above.
 ---------------------------------------------------------------
  

 Cite this work as:
 Gaussian 16, Revision A.03,
 M. J. Frisch, G. W. Trucks, H. B. Schlegel, G. E. Scuseria, 
 M. A. Robb, J. R. Cheeseman, G. Scalmani, V. Barone, 
 G. A. Petersson, H. Nakatsuji, X. Li, M. Caricato, A. V. Marenich, 
 J. Bloino, B. G. Janesko, R. Gomperts, B. Mennucci, H. P. Hratchian, 
 J. V. Ortiz, A. F. Izmaylov, J. L. Sonnenberg, D. Williams-Young, 
 F. Ding, F. Lipparini, F. Egidi, J. Goings, B. Peng, A. Petrone, 
 T. Henderson, D. Ranasinghe, V. G. Zakrzewski, J. Gao, N. Rega, 
 G. Zheng, W. Liang, M. Hada, M. Ehara, K. Toyota, R. Fukuda, 
 J. Hasegawa, M. Ishida, T. Nakajima, Y. Honda, O. Kitao, H. Nakai, 
 T. Vreven, K. Throssell, J. A. Montgomery, Jr., J. E. Peralta, 
 F. Ogliaro, M. J. Bearpark, J. J. Heyd, E. N. Brothers, K. N. Kudin, 
 V. N. Staroverov, T. A. Keith, R. Kobayashi, J. Normand, 
 K. Raghavachari, A. P. Rendell, J. C. Burant, S. S. Iyengar, 
 J. Tomasi, M. Cossi, J. M. Millam, M. Klene, C. Adamo, R. Cammi, 
 J. W. Ochterski, R. L. Martin, K. Morokuma, O. Farkas, 
 J. B. Foresman, and D. J. Fox, Gaussian, Inc., Wallingford CT, 2016.
 
 ******************************************
 Gaussian 16:  ES64L-G16RevA.03 25-Dec-2016
                 4-Apr-2020 
 ******************************************
 %nprocshared=4
 Will use up to    4 processors via shared memory.
 %mem=1GB
 %oldchk=chk/acyclic_5_to_6.chk
 Copying data from "chk/acyclic_5_to_6.chk" to current chk file "/scratch/brown/finej/0051_imine_mechanism/ts_631gd/acyclic_complete/new_logs_2/Gau-245300.chk"
 IOpt=  2 FromEx=T IUOpen= 4 IOptOp= 5 NList=   0 IFRang= 0 IUIn= 4 IUOut= 2.
 ----------------------------------------------------------------------
 # freq=readfc wb97xd/6-31g(d) scrf=solvent=dichloromethane geom=check 
 temperature=263.15
 ----------------------------------------------------------------------
 1/29=2,38=1,112=263150,172=1/1;
 2/12=2,40=1/2;
 7/8=1,25=11/16;
 99/5=2/99;
 -------------------------------
 Attack of PINC on Sulfonylimine
 -------------------------------
 Structure from the checkpoint file:  "/scratch/brown/finej/0051_imine_mechanism/ts_631gd/acyclic_complete/new_logs_2/Gau-245300.chk"
 Charge =  0 Multiplicity = 1
 Redundant internal coordinates found in file.  (old form).
 C,0,-3.7159334302,1.3556317599,-2.1757511007
 C,0,-4.7008561848,2.3298476587,-2.0230435913
 C,0,-4.9591267098,2.8668878436,-0.7661272656
 C,0,-4.2269384195,2.4299636918,0.3376003628
 C,0,-3.2429896395,1.4612227655,0.1838082948
 C,0,-2.9832261933,0.9153425743,-1.0762255354
 C,0,-1.9186647666,-0.1543442386,-1.2589467491
 O,0,-3.0569778696,-3.5003525538,0.1984760045
 O,0,-3.7905334359,-2.3644145889,-1.9312194956
 S,0,-3.4203098277,-2.2795575527,-0.519701277
 N,0,-2.1087225149,-1.2638319629,-0.2976220885
 C,0,0.2683281506,3.721545242,0.4683889041
 C,0,0.487761678,5.0649616243,0.7661954037
 C,0,1.7845166339,5.5477842257,0.9133510663
 C,0,2.8648439713,4.6792677651,0.7621802348
 C,0,2.6478740227,3.3372417794,0.4717079967
 O,0,1.9235283627,0.5763233123,0.8887443103
 C,0,1.347140338,2.8500196987,0.3258543657
 C,0,1.1082478196,1.4100098203,-0.073627467
 O,0,-0.2292751236,1.0458626949,0.0885104031
 C,0,-0.5399386699,0.3799339689,-1.0768747214
 N,0,0.4218377142,0.354584184,-1.9197378184
 C,0,2.1573299702,-1.7786829659,-0.7616845815
 N,0,1.5023994553,1.0161940223,-1.3755970178
 C,0,3.5996508313,-1.240088532,1.617331875
 C,0,4.3970780357,0.2708710156,-0.6986549557
 P,0,2.9339717016,-0.4219628928,0.1306980228
 C,0,2.515546293,-2.1406744864,-2.0596693621
 C,0,1.8619935625,-3.1973916388,-2.6855349428
 C,0,0.8488988496,-3.8874856984,-2.0248439368
 C,0,0.4950922683,-3.5326189757,-0.7245768052
 C,0,1.1489383039,-2.4798407943,-0.0906987393
 C,0,4.1809744246,-2.5078295656,1.5012398644
 C,0,4.7426901503,-3.1247603759,2.6133686469
 C,0,4.7280840072,-2.481053739,3.8489884684
 C,0,4.1514857581,-1.2196110197,3.9703051712
 C,0,3.5896377902,-0.5972689963,2.8590922027
 C,0,4.3475878485,0.799125525,-1.99688186
 C,0,5.5042566596,1.2797877821,-2.5983558045
 C,0,6.715167489,1.2644543237,-1.9102545127
 C,0,6.7689365949,0.7605825694,-0.6144858105
 C,0,5.6206180228,0.2581650971,-0.0114147802
 H,0,-3.5253437403,0.9266078396,-3.1559689478
 H,0,-5.2697388817,2.6613458625,-2.8865387651
 H,0,-5.7317176574,3.620143934,-0.6433002471
 H,0,-4.4306978968,2.8385433394,1.3229168643
 H,0,-1.957435535,-0.527098968,-2.2885897424
 H,0,-1.2799656882,-1.8553227753,-0.2529103534
 H,0,-0.7427624323,3.3465573865,0.3464633354
 H,0,-0.359737136,5.7343346779,0.8808536639
 H,0,1.9550277209,6.5953857361,1.1429399431
 H,0,3.8803106757,5.0479828805,0.8730296346
 H,0,3.4959770273,2.6695013555,0.3556791625
 H,0,3.2944804662,-1.5998866395,-2.5860716038
 H,0,2.1425558875,-3.4773269919,-3.6956628821
 H,0,0.3367439344,-4.7061032914,-2.5201231197
 H,0,-0.2921816477,-4.0717884131,-0.2056370186
 H,0,0.8813281887,-2.2118185974,0.9283474287
 H,0,4.193726195,-3.0188381254,0.5427396688
 H,0,5.1884453803,-4.1093964737,2.5153119179
 H,0,5.1643954179,-2.9645891585,4.7175608629
 H,0,4.1355589084,-0.7170770283,4.932219841
 H,0,3.138387786,0.3837052784,2.9560721897
 H,0,3.3896944569,0.8659666562,-2.4961168307
 H,0,5.4538416856,1.6813857352,-3.6053269292
 H,0,7.6139873522,1.6507200383,-2.3810194224
 H,0,7.7063883642,0.7518919786,-0.0679937624
 H,0,5.6884392486,-0.1389939129,0.9942231623
 C,0,-4.7244723884,-1.448022229,0.342531766
 C,0,-5.7642475492,-0.8719318442,-0.3773556315
 C,0,-4.6504191301,-1.332366058,1.7278847556
 C,0,-6.7363267014,-0.1532923255,0.3062469379
 H,0,-5.7956815436,-0.9663737312,-1.4564919627
 C,0,-5.6310571815,-0.6110525303,2.3940454304
 H,0,-3.8321901361,-1.7893986115,2.2747072964
 C,0,-6.6781689829,-0.0015535202,1.6938970798
 H,0,-7.5450849193,0.3106982115,-0.2509437823
 H,0,-5.5789460286,-0.5121597533,3.4745598632
 H,0,-2.6861693372,1.1061639425,1.0444674956
 C,0,-7.70274286,0.8353960782,2.4135817251
 H,0,-8.6938240472,0.7263640472,1.9634751466
 H,0,-7.770719017,0.5658206674,3.4710852847
 H,0,-7.4311880768,1.8963249578,2.3569201624
 Recover connectivity data from disk.
                           ----------------------------
                           !    Current Parameters    !
                           ! (Angstroms and Degrees)  !
 --------------------------                            --------------------------
 ! Name  Definition              Value          Derivative Info.                !
 --------------------------------------------------------------------------------
 ! R1    R(1,2)                  1.3937         estimate D2E/DX2                !
 ! R2    R(1,6)                  1.3927         estimate D2E/DX2                !
 ! R3    R(1,43)                 1.0868         estimate D2E/DX2                !
 ! R4    R(2,3)                  1.391          estimate D2E/DX2                !
 ! R5    R(2,44)                 1.0859         estimate D2E/DX2                !
 ! R6    R(3,4)                  1.3947         estimate D2E/DX2                !
 ! R7    R(3,45)                 1.086          estimate D2E/DX2                !
 ! R8    R(4,5)                  1.3893         estimate D2E/DX2                !
 ! R9    R(4,46)                 1.086          estimate D2E/DX2                !
 ! R10   R(5,6)                  1.3976         estimate D2E/DX2                !
 ! R11   R(5,79)                 1.0848         estimate D2E/DX2                !
 ! R12   R(6,7)                  1.5202         estimate D2E/DX2                !
 ! R13   R(7,11)                 1.4803         estimate D2E/DX2                !
 ! R14   R(7,21)                 1.4898         estimate D2E/DX2                !
 ! R15   R(7,47)                 1.0957         estimate D2E/DX2                !
 ! R16   R(8,10)                 1.4622         estimate D2E/DX2                !
 ! R17   R(9,10)                 1.4617         estimate D2E/DX2                !
 ! R18   R(10,11)                1.6737         estimate D2E/DX2                !
 ! R19   R(10,69)                1.7708         estimate D2E/DX2                !
 ! R20   R(11,48)                1.0192         estimate D2E/DX2                !
 ! R21   R(12,13)                1.3934         estimate D2E/DX2                !
 ! R22   R(12,18)                1.3942         estimate D2E/DX2                !
 ! R23   R(12,49)                1.0853         estimate D2E/DX2                !
 ! R24   R(13,14)                1.3915         estimate D2E/DX2                !
 ! R25   R(13,50)                1.086          estimate D2E/DX2                !
 ! R26   R(14,15)                1.3944         estimate D2E/DX2                !
 ! R27   R(14,51)                1.0859         estimate D2E/DX2                !
 ! R28   R(15,16)                1.3901         estimate D2E/DX2                !
 ! R29   R(15,52)                1.086          estimate D2E/DX2                !
 ! R30   R(16,18)                1.3966         estimate D2E/DX2                !
 ! R31   R(16,53)                1.0856         estimate D2E/DX2                !
 ! R32   R(17,19)                1.5119         estimate D2E/DX2                !
 ! R33   R(17,27)                1.61           estimate D2E/DX2                !
 ! R34   R(18,19)                1.5134         estimate D2E/DX2                !
 ! R35   R(19,20)                1.3957         estimate D2E/DX2                !
 ! R36   R(19,24)                1.4162         estimate D2E/DX2                !
 ! R37   R(20,21)                1.3777         estimate D2E/DX2                !
 ! R38   R(21,22)                1.2791         estimate D2E/DX2                !
 ! R39   R(22,24)                1.3789         estimate D2E/DX2                !
 ! R40   R(23,27)                1.8001         estimate D2E/DX2                !
 ! R41   R(23,28)                1.3943         estimate D2E/DX2                !
 ! R42   R(23,32)                1.3995         estimate D2E/DX2                !
 ! R43   R(25,27)                1.8228         estimate D2E/DX2                !
 ! R44   R(25,33)                1.3995         estimate D2E/DX2                !
 ! R45   R(25,37)                1.3983         estimate D2E/DX2                !
 ! R46   R(26,27)                1.8189         estimate D2E/DX2                !
 ! R47   R(26,38)                1.4025         estimate D2E/DX2                !
 ! R48   R(26,42)                1.4034         estimate D2E/DX2                !
 ! R49   R(28,29)                1.3912         estimate D2E/DX2                !
 ! R50   R(28,54)                1.0846         estimate D2E/DX2                !
 ! R51   R(29,30)                1.3925         estimate D2E/DX2                !
 ! R52   R(29,55)                1.0851         estimate D2E/DX2                !
 ! R53   R(30,31)                1.3935         estimate D2E/DX2                !
 ! R54   R(30,56)                1.0852         estimate D2E/DX2                !
 ! R55   R(31,32)                1.392          estimate D2E/DX2                !
 ! R56   R(31,57)                1.0862         estimate D2E/DX2                !
 ! R57   R(32,58)                1.0872         estimate D2E/DX2                !
 ! R58   R(33,34)                1.3903         estimate D2E/DX2                !
 ! R59   R(33,59)                1.0863         estimate D2E/DX2                !
 ! R60   R(34,35)                1.3933         estimate D2E/DX2                !
 ! R61   R(34,60)                1.0853         estimate D2E/DX2                !
 ! R62   R(35,36)                1.3923         estimate D2E/DX2                !
 ! R63   R(35,61)                1.0856         estimate D2E/DX2                !
 ! R64   R(36,37)                1.392          estimate D2E/DX2                !
 ! R65   R(36,62)                1.0854         estimate D2E/DX2                !
 ! R66   R(37,63)                1.0841         estimate D2E/DX2                !
 ! R67   R(38,39)                1.3895         estimate D2E/DX2                !
 ! R68   R(38,64)                1.0822         estimate D2E/DX2                !
 ! R69   R(39,40)                1.3928         estimate D2E/DX2                !
 ! R70   R(39,65)                1.0853         estimate D2E/DX2                !
 ! R71   R(40,41)                1.3913         estimate D2E/DX2                !
 ! R72   R(40,66)                1.0857         estimate D2E/DX2                !
 ! R73   R(41,42)                1.391          estimate D2E/DX2                !
 ! R74   R(41,67)                1.0851         estimate D2E/DX2                !
 ! R75   R(42,68)                1.0833         estimate D2E/DX2                !
 ! R76   R(69,70)                1.3897         estimate D2E/DX2                !
 ! R77   R(69,71)                1.3921         estimate D2E/DX2                !
 ! R78   R(70,72)                1.3888         estimate D2E/DX2                !
 ! R79   R(70,73)                1.0837         estimate D2E/DX2                !
 ! R80   R(71,74)                1.3877         estimate D2E/DX2                !
 ! R81   R(71,75)                1.0851         estimate D2E/DX2                !
 ! R82   R(72,76)                1.3971         estimate D2E/DX2                !
 ! R83   R(72,77)                1.0862         estimate D2E/DX2                !
 ! R84   R(74,76)                1.3993         estimate D2E/DX2                !
 ! R85   R(74,78)                1.0863         estimate D2E/DX2                !
 ! R86   R(76,80)                1.506          estimate D2E/DX2                !
 ! R87   R(80,81)                1.0939         estimate D2E/DX2                !
 ! R88   R(80,82)                1.0934         estimate D2E/DX2                !
 ! R89   R(80,83)                1.0966         estimate D2E/DX2                !
 ! A1    A(2,1,6)              120.415          estimate D2E/DX2                !
 ! A2    A(2,1,43)             119.912          estimate D2E/DX2                !
 ! A3    A(6,1,43)             119.6685         estimate D2E/DX2                !
 ! A4    A(1,2,3)              120.0052         estimate D2E/DX2                !
 ! A5    A(1,2,44)             119.7677         estimate D2E/DX2                !
 ! A6    A(3,2,44)             120.2255         estimate D2E/DX2                !
 ! A7    A(2,3,4)              119.7788         estimate D2E/DX2                !
 ! A8    A(2,3,45)             120.1371         estimate D2E/DX2                !
 ! A9    A(4,3,45)             120.0834         estimate D2E/DX2                !
 ! A10   A(3,4,5)              120.1741         estimate D2E/DX2                !
 ! A11   A(3,4,46)             120.1099         estimate D2E/DX2                !
 ! A12   A(5,4,46)             119.7131         estimate D2E/DX2                !
 ! A13   A(4,5,6)              120.251          estimate D2E/DX2                !
 ! A14   A(4,5,79)             120.2586         estimate D2E/DX2                !
 ! A15   A(6,5,79)             119.4755         estimate D2E/DX2                !
 ! A16   A(1,6,5)              119.3753         estimate D2E/DX2                !
 ! A17   A(1,6,7)              119.7345         estimate D2E/DX2                !
 ! A18   A(5,6,7)              120.8895         estimate D2E/DX2                !
 ! A19   A(6,7,11)             111.0654         estimate D2E/DX2                !
 ! A20   A(6,7,21)             112.3982         estimate D2E/DX2                !
 ! A21   A(6,7,47)             109.1201         estimate D2E/DX2                !
 ! A22   A(11,7,21)            107.9536         estimate D2E/DX2                !
 ! A23   A(11,7,47)            110.5323         estimate D2E/DX2                !
 ! A24   A(21,7,47)            105.6398         estimate D2E/DX2                !
 ! A25   A(8,10,9)             119.2582         estimate D2E/DX2                !
 ! A26   A(8,10,11)            104.2871         estimate D2E/DX2                !
 ! A27   A(8,10,69)            109.627          estimate D2E/DX2                !
 ! A28   A(9,10,11)            111.2132         estimate D2E/DX2                !
 ! A29   A(9,10,69)            108.1145         estimate D2E/DX2                !
 ! A30   A(11,10,69)           103.1532         estimate D2E/DX2                !
 ! A31   A(7,11,10)            117.9891         estimate D2E/DX2                !
 ! A32   A(7,11,48)            111.0436         estimate D2E/DX2                !
 ! A33   A(10,11,48)           106.9088         estimate D2E/DX2                !
 ! A34   A(13,12,18)           120.1777         estimate D2E/DX2                !
 ! A35   A(13,12,49)           120.2556         estimate D2E/DX2                !
 ! A36   A(18,12,49)           119.5667         estimate D2E/DX2                !
 ! A37   A(12,13,14)           120.2569         estimate D2E/DX2                !
 ! A38   A(12,13,50)           119.5976         estimate D2E/DX2                !
 ! A39   A(14,13,50)           120.1453         estimate D2E/DX2                !
 ! A40   A(13,14,15)           119.6318         estimate D2E/DX2                !
 ! A41   A(13,14,51)           120.2257         estimate D2E/DX2                !
 ! A42   A(15,14,51)           120.1425         estimate D2E/DX2                !
 ! A43   A(14,15,16)           120.2015         estimate D2E/DX2                !
 ! A44   A(14,15,52)           120.1265         estimate D2E/DX2                !
 ! A45   A(16,15,52)           119.6719         estimate D2E/DX2                !
 ! A46   A(15,16,18)           120.2627         estimate D2E/DX2                !
 ! A47   A(15,16,53)           119.6158         estimate D2E/DX2                !
 ! A48   A(18,16,53)           120.1212         estimate D2E/DX2                !
 ! A49   A(19,17,27)           112.3725         estimate D2E/DX2                !
 ! A50   A(12,18,16)           119.4668         estimate D2E/DX2                !
 ! A51   A(12,18,19)           119.9774         estimate D2E/DX2                !
 ! A52   A(16,18,19)           120.4329         estimate D2E/DX2                !
 ! A53   A(17,19,18)           105.7559         estimate D2E/DX2                !
 ! A54   A(17,19,20)           107.3951         estimate D2E/DX2                !
 ! A55   A(17,19,24)           106.366          estimate D2E/DX2                !
 ! A56   A(18,19,20)           111.6466         estimate D2E/DX2                !
 ! A57   A(18,19,24)           117.6034         estimate D2E/DX2                !
 ! A58   A(20,19,24)           107.5162         estimate D2E/DX2                !
 ! A59   A(19,20,21)           104.1195         estimate D2E/DX2                !
 ! A60   A(7,21,20)            119.0389         estimate D2E/DX2                !
 ! A61   A(7,21,22)            127.4611         estimate D2E/DX2                !
 ! A62   A(20,21,22)           113.4174         estimate D2E/DX2                !
 ! A63   A(21,22,24)           108.6439         estimate D2E/DX2                !
 ! A64   A(27,23,28)           123.1158         estimate D2E/DX2                !
 ! A65   A(27,23,32)           116.7946         estimate D2E/DX2                !
 ! A66   A(28,23,32)           120.0896         estimate D2E/DX2                !
 ! A67   A(19,24,22)           106.1476         estimate D2E/DX2                !
 ! A68   A(27,25,33)           119.3814         estimate D2E/DX2                !
 ! A69   A(27,25,37)           121.0191         estimate D2E/DX2                !
 ! A70   A(33,25,37)           119.5427         estimate D2E/DX2                !
 ! A71   A(27,26,38)           122.4901         estimate D2E/DX2                !
 ! A72   A(27,26,42)           118.3307         estimate D2E/DX2                !
 ! A73   A(38,26,42)           119.1751         estimate D2E/DX2                !
 ! A74   A(17,27,23)           115.4655         estimate D2E/DX2                !
 ! A75   A(17,27,25)            97.0937         estimate D2E/DX2                !
 ! A76   A(17,27,26)           118.9025         estimate D2E/DX2                !
 ! A77   A(23,27,25)           102.9208         estimate D2E/DX2                !
 ! A78   A(23,27,26)           114.0854         estimate D2E/DX2                !
 ! A79   A(25,27,26)           104.4227         estimate D2E/DX2                !
 ! A80   A(23,28,29)           119.6892         estimate D2E/DX2                !
 ! A81   A(23,28,54)           120.4566         estimate D2E/DX2                !
 ! A82   A(29,28,54)           119.8528         estimate D2E/DX2                !
 ! A83   A(28,29,30)           120.3145         estimate D2E/DX2                !
 ! A84   A(28,29,55)           119.5562         estimate D2E/DX2                !
 ! A85   A(30,29,55)           120.1283         estimate D2E/DX2                !
 ! A86   A(29,30,31)           120.0817         estimate D2E/DX2                !
 ! A87   A(29,30,56)           120.0417         estimate D2E/DX2                !
 ! A88   A(31,30,56)           119.8758         estimate D2E/DX2                !
 ! A89   A(30,31,32)           119.8843         estimate D2E/DX2                !
 ! A90   A(30,31,57)           120.2265         estimate D2E/DX2                !
 ! A91   A(32,31,57)           119.8886         estimate D2E/DX2                !
 ! A92   A(23,32,31)           119.9354         estimate D2E/DX2                !
 ! A93   A(23,32,58)           120.215          estimate D2E/DX2                !
 ! A94   A(31,32,58)           119.8464         estimate D2E/DX2                !
 ! A95   A(25,33,34)           120.2272         estimate D2E/DX2                !
 ! A96   A(25,33,59)           120.2784         estimate D2E/DX2                !
 ! A97   A(34,33,59)           119.494          estimate D2E/DX2                !
 ! A98   A(33,34,35)           120.0093         estimate D2E/DX2                !
 ! A99   A(33,34,60)           119.7528         estimate D2E/DX2                !
 ! A100  A(35,34,60)           120.2376         estimate D2E/DX2                !
 ! A101  A(34,35,36)           120.0131         estimate D2E/DX2                !
 ! A102  A(34,35,61)           119.9687         estimate D2E/DX2                !
 ! A103  A(36,35,61)           120.018          estimate D2E/DX2                !
 ! A104  A(35,36,37)           120.176          estimate D2E/DX2                !
 ! A105  A(35,36,62)           120.1848         estimate D2E/DX2                !
 ! A106  A(37,36,62)           119.639          estimate D2E/DX2                !
 ! A107  A(25,37,36)           120.0314         estimate D2E/DX2                !
 ! A108  A(25,37,63)           119.8933         estimate D2E/DX2                !
 ! A109  A(36,37,63)           120.0742         estimate D2E/DX2                !
 ! A110  A(26,38,39)           120.1075         estimate D2E/DX2                !
 ! A111  A(26,38,64)           118.7838         estimate D2E/DX2                !
 ! A112  A(39,38,64)           121.047          estimate D2E/DX2                !
 ! A113  A(38,39,40)           120.4008         estimate D2E/DX2                !
 ! A114  A(38,39,65)           119.405          estimate D2E/DX2                !
 ! A115  A(40,39,65)           120.1882         estimate D2E/DX2                !
 ! A116  A(39,40,41)           119.8466         estimate D2E/DX2                !
 ! A117  A(39,40,66)           120.1069         estimate D2E/DX2                !
 ! A118  A(41,40,66)           120.0453         estimate D2E/DX2                !
 ! A119  A(40,41,42)           120.1784         estimate D2E/DX2                !
 ! A120  A(40,41,67)           120.3518         estimate D2E/DX2                !
 ! A121  A(42,41,67)           119.4692         estimate D2E/DX2                !
 ! A122  A(26,42,41)           120.2765         estimate D2E/DX2                !
 ! A123  A(26,42,68)           120.8286         estimate D2E/DX2                !
 ! A124  A(41,42,68)           118.8947         estimate D2E/DX2                !
 ! A125  A(10,69,70)           119.5689         estimate D2E/DX2                !
 ! A126  A(10,69,71)           118.9717         estimate D2E/DX2                !
 ! A127  A(70,69,71)           121.3894         estimate D2E/DX2                !
 ! A128  A(69,70,72)           118.8968         estimate D2E/DX2                !
 ! A129  A(69,70,73)           120.093          estimate D2E/DX2                !
 ! A130  A(72,70,73)           120.9939         estimate D2E/DX2                !
 ! A131  A(69,71,74)           118.901          estimate D2E/DX2                !
 ! A132  A(69,71,75)           120.4383         estimate D2E/DX2                !
 ! A133  A(74,71,75)           120.6567         estimate D2E/DX2                !
 ! A134  A(70,72,76)           121.0615         estimate D2E/DX2                !
 ! A135  A(70,72,77)           119.3215         estimate D2E/DX2                !
 ! A136  A(76,72,77)           119.6097         estimate D2E/DX2                !
 ! A137  A(71,74,76)           120.9978         estimate D2E/DX2                !
 ! A138  A(71,74,78)           119.401          estimate D2E/DX2                !
 ! A139  A(76,74,78)           119.5993         estimate D2E/DX2                !
 ! A140  A(72,76,74)           118.7371         estimate D2E/DX2                !
 ! A141  A(72,76,80)           120.4414         estimate D2E/DX2                !
 ! A142  A(74,76,80)           120.7989         estimate D2E/DX2                !
 ! A143  A(76,80,81)           111.3663         estimate D2E/DX2                !
 ! A144  A(76,80,82)           111.558          estimate D2E/DX2                !
 ! A145  A(76,80,83)           110.1508         estimate D2E/DX2                !
 ! A146  A(81,80,82)           108.4837         estimate D2E/DX2                !
 ! A147  A(81,80,83)           107.4285         estimate D2E/DX2                !
 ! A148  A(82,80,83)           107.6913         estimate D2E/DX2                !
 ! D1    D(6,1,2,3)             -0.1274         estimate D2E/DX2                !
 ! D2    D(6,1,2,44)          -179.6508         estimate D2E/DX2                !
 ! D3    D(43,1,2,3)           179.1087         estimate D2E/DX2                !
 ! D4    D(43,1,2,44)           -0.4147         estimate D2E/DX2                !
 ! D5    D(2,1,6,5)             -0.0985         estimate D2E/DX2                !
 ! D6    D(2,1,6,7)            179.611          estimate D2E/DX2                !
 ! D7    D(43,1,6,5)          -179.3365         estimate D2E/DX2                !
 ! D8    D(43,1,6,7)             0.373          estimate D2E/DX2                !
 ! D9    D(1,2,3,4)              0.1906         estimate D2E/DX2                !
 ! D10   D(1,2,3,45)          -179.4931         estimate D2E/DX2                !
 ! D11   D(44,2,3,4)           179.7118         estimate D2E/DX2                !
 ! D12   D(44,2,3,45)            0.0281         estimate D2E/DX2                !
 ! D13   D(2,3,4,5)             -0.0274         estimate D2E/DX2                !
 ! D14   D(2,3,4,46)          -179.4043         estimate D2E/DX2                !
 ! D15   D(45,3,4,5)           179.6564         estimate D2E/DX2                !
 ! D16   D(45,3,4,46)            0.2795         estimate D2E/DX2                !
 ! D17   D(3,4,5,6)             -0.2            estimate D2E/DX2                !
 ! D18   D(3,4,5,79)          -178.786          estimate D2E/DX2                !
 ! D19   D(46,4,5,6)           179.1794         estimate D2E/DX2                !
 ! D20   D(46,4,5,79)            0.5934         estimate D2E/DX2                !
 ! D21   D(4,5,6,1)              0.262          estimate D2E/DX2                !
 ! D22   D(4,5,6,7)           -179.4441         estimate D2E/DX2                !
 ! D23   D(79,5,6,1)           178.859          estimate D2E/DX2                !
 ! D24   D(79,5,6,7)            -0.847          estimate D2E/DX2                !
 ! D25   D(1,6,7,11)          -128.4465         estimate D2E/DX2                !
 ! D26   D(1,6,7,21)           110.4879         estimate D2E/DX2                !
 ! D27   D(1,6,7,47)            -6.3513         estimate D2E/DX2                !
 ! D28   D(5,6,7,11)            51.2585         estimate D2E/DX2                !
 ! D29   D(5,6,7,21)           -69.8071         estimate D2E/DX2                !
 ! D30   D(5,6,7,47)           173.3537         estimate D2E/DX2                !
 ! D31   D(6,7,11,10)           70.5432         estimate D2E/DX2                !
 ! D32   D(6,7,11,48)         -165.5817         estimate D2E/DX2                !
 ! D33   D(21,7,11,10)        -165.8124         estimate D2E/DX2                !
 ! D34   D(21,7,11,48)         -41.9373         estimate D2E/DX2                !
 ! D35   D(47,7,11,10)         -50.7271         estimate D2E/DX2                !
 ! D36   D(47,7,11,48)          73.148          estimate D2E/DX2                !
 ! D37   D(6,7,21,20)           54.5485         estimate D2E/DX2                !
 ! D38   D(6,7,21,22)         -121.9134         estimate D2E/DX2                !
 ! D39   D(11,7,21,20)         -68.2852         estimate D2E/DX2                !
 ! D40   D(11,7,21,22)         115.2529         estimate D2E/DX2                !
 ! D41   D(47,7,21,20)         173.4481         estimate D2E/DX2                !
 ! D42   D(47,7,21,22)          -3.0137         estimate D2E/DX2                !
 ! D43   D(8,10,11,7)          158.6499         estimate D2E/DX2                !
 ! D44   D(8,10,11,48)          32.7357         estimate D2E/DX2                !
 ! D45   D(9,10,11,7)           28.8696         estimate D2E/DX2                !
 ! D46   D(9,10,11,48)         -97.0447         estimate D2E/DX2                !
 ! D47   D(69,10,11,7)         -86.8015         estimate D2E/DX2                !
 ! D48   D(69,10,11,48)        147.2842         estimate D2E/DX2                !
 ! D49   D(8,10,69,70)        -139.2564         estimate D2E/DX2                !
 ! D50   D(8,10,69,71)          43.7437         estimate D2E/DX2                !
 ! D51   D(9,10,69,70)          -7.7569         estimate D2E/DX2                !
 ! D52   D(9,10,69,71)         175.2431         estimate D2E/DX2                !
 ! D53   D(11,10,69,70)        110.1095         estimate D2E/DX2                !
 ! D54   D(11,10,69,71)        -66.8904         estimate D2E/DX2                !
 ! D55   D(18,12,13,14)          0.4845         estimate D2E/DX2                !
 ! D56   D(18,12,13,50)       -179.6462         estimate D2E/DX2                !
 ! D57   D(49,12,13,14)       -179.5519         estimate D2E/DX2                !
 ! D58   D(49,12,13,50)          0.3175         estimate D2E/DX2                !
 ! D59   D(13,12,18,16)         -0.5899         estimate D2E/DX2                !
 ! D60   D(13,12,18,19)       -176.5776         estimate D2E/DX2                !
 ! D61   D(49,12,18,16)        179.4461         estimate D2E/DX2                !
 ! D62   D(49,12,18,19)          3.4585         estimate D2E/DX2                !
 ! D63   D(12,13,14,15)         -0.0506         estimate D2E/DX2                !
 ! D64   D(12,13,14,51)        179.8436         estimate D2E/DX2                !
 ! D65   D(50,13,14,15)       -179.9192         estimate D2E/DX2                !
 ! D66   D(50,13,14,51)         -0.0251         estimate D2E/DX2                !
 ! D67   D(13,14,15,16)         -0.2733         estimate D2E/DX2                !
 ! D68   D(13,14,15,52)        179.859          estimate D2E/DX2                !
 ! D69   D(51,14,15,16)        179.8324         estimate D2E/DX2                !
 ! D70   D(51,14,15,52)         -0.0352         estimate D2E/DX2                !
 ! D71   D(14,15,16,18)          0.1648         estimate D2E/DX2                !
 ! D72   D(14,15,16,53)        179.9803         estimate D2E/DX2                !
 ! D73   D(52,15,16,18)       -179.9669         estimate D2E/DX2                !
 ! D74   D(52,15,16,53)         -0.1515         estimate D2E/DX2                !
 ! D75   D(15,16,18,12)          0.2667         estimate D2E/DX2                !
 ! D76   D(15,16,18,19)        176.2357         estimate D2E/DX2                !
 ! D77   D(53,16,18,12)       -179.5478         estimate D2E/DX2                !
 ! D78   D(53,16,18,19)         -3.5788         estimate D2E/DX2                !
 ! D79   D(27,17,19,18)       -125.1078         estimate D2E/DX2                !
 ! D80   D(27,17,19,20)        115.5489         estimate D2E/DX2                !
 ! D81   D(27,17,19,24)          0.6687         estimate D2E/DX2                !
 ! D82   D(19,17,27,23)        -69.2151         estimate D2E/DX2                !
 ! D83   D(19,17,27,25)       -177.2046         estimate D2E/DX2                !
 ! D84   D(19,17,27,26)         71.9768         estimate D2E/DX2                !
 ! D85   D(12,18,19,17)       -132.3127         estimate D2E/DX2                !
 ! D86   D(12,18,19,20)        -15.8144         estimate D2E/DX2                !
 ! D87   D(12,18,19,24)        109.139          estimate D2E/DX2                !
 ! D88   D(16,18,19,17)         51.7389         estimate D2E/DX2                !
 ! D89   D(16,18,19,20)        168.2372         estimate D2E/DX2                !
 ! D90   D(16,18,19,24)        -66.8094         estimate D2E/DX2                !
 ! D91   D(17,19,20,21)       -110.2667         estimate D2E/DX2                !
 ! D92   D(18,19,20,21)        134.2355         estimate D2E/DX2                !
 ! D93   D(24,19,20,21)          3.8446         estimate D2E/DX2                !
 ! D94   D(17,19,24,22)        111.0352         estimate D2E/DX2                !
 ! D95   D(18,19,24,22)       -130.7417         estimate D2E/DX2                !
 ! D96   D(20,19,24,22)         -3.7628         estimate D2E/DX2                !
 ! D97   D(19,20,21,7)        -179.6267         estimate D2E/DX2                !
 ! D98   D(19,20,21,22)         -2.6868         estimate D2E/DX2                !
 ! D99   D(7,21,22,24)         176.9703         estimate D2E/DX2                !
 ! D100  D(20,21,22,24)          0.3411         estimate D2E/DX2                !
 ! D101  D(21,22,24,19)          2.1427         estimate D2E/DX2                !
 ! D102  D(28,23,27,17)        134.0322         estimate D2E/DX2                !
 ! D103  D(28,23,27,25)       -121.5145         estimate D2E/DX2                !
 ! D104  D(28,23,27,26)         -9.028          estimate D2E/DX2                !
 ! D105  D(32,23,27,17)        -45.873          estimate D2E/DX2                !
 ! D106  D(32,23,27,25)         58.5802         estimate D2E/DX2                !
 ! D107  D(32,23,27,26)        171.0667         estimate D2E/DX2                !
 ! D108  D(27,23,28,29)       -179.6195         estimate D2E/DX2                !
 ! D109  D(27,23,28,54)         -0.0514         estimate D2E/DX2                !
 ! D110  D(32,23,28,29)          0.2827         estimate D2E/DX2                !
 ! D111  D(32,23,28,54)        179.8508         estimate D2E/DX2                !
 ! D112  D(27,23,32,31)        179.3582         estimate D2E/DX2                !
 ! D113  D(27,23,32,58)         -1.2836         estimate D2E/DX2                !
 ! D114  D(28,23,32,31)         -0.5501         estimate D2E/DX2                !
 ! D115  D(28,23,32,58)        178.8081         estimate D2E/DX2                !
 ! D116  D(33,25,27,17)        157.8393         estimate D2E/DX2                !
 ! D117  D(33,25,27,23)         39.6043         estimate D2E/DX2                !
 ! D118  D(33,25,27,26)        -79.8234         estimate D2E/DX2                !
 ! D119  D(37,25,27,17)        -24.9157         estimate D2E/DX2                !
 ! D120  D(37,25,27,23)       -143.1507         estimate D2E/DX2                !
 ! D121  D(37,25,27,26)         97.4216         estimate D2E/DX2                !
 ! D122  D(27,25,33,34)        177.391          estimate D2E/DX2                !
 ! D123  D(27,25,33,59)         -2.8268         estimate D2E/DX2                !
 ! D124  D(37,25,33,34)          0.1048         estimate D2E/DX2                !
 ! D125  D(37,25,33,59)        179.887          estimate D2E/DX2                !
 ! D126  D(27,25,37,36)       -177.4393         estimate D2E/DX2                !
 ! D127  D(27,25,37,63)          2.9282         estimate D2E/DX2                !
 ! D128  D(33,25,37,36)         -0.1986         estimate D2E/DX2                !
 ! D129  D(33,25,37,63)       -179.8312         estimate D2E/DX2                !
 ! D130  D(38,26,27,17)        -83.8213         estimate D2E/DX2                !
 ! D131  D(38,26,27,23)         57.8783         estimate D2E/DX2                !
 ! D132  D(38,26,27,25)        169.4621         estimate D2E/DX2                !
 ! D133  D(42,26,27,17)         96.9204         estimate D2E/DX2                !
 ! D134  D(42,26,27,23)       -121.3801         estimate D2E/DX2                !
 ! D135  D(42,26,27,25)         -9.7962         estimate D2E/DX2                !
 ! D136  D(27,26,38,39)       -178.0856         estimate D2E/DX2                !
 ! D137  D(27,26,38,64)          4.74           estimate D2E/DX2                !
 ! D138  D(42,26,38,39)          1.1668         estimate D2E/DX2                !
 ! D139  D(42,26,38,64)       -176.0077         estimate D2E/DX2                !
 ! D140  D(27,26,42,41)        179.1064         estimate D2E/DX2                !
 ! D141  D(27,26,42,68)         -1.021          estimate D2E/DX2                !
 ! D142  D(38,26,42,41)         -0.1772         estimate D2E/DX2                !
 ! D143  D(38,26,42,68)        179.6955         estimate D2E/DX2                !
 ! D144  D(23,28,29,30)          0.3823         estimate D2E/DX2                !
 ! D145  D(23,28,29,55)       -179.9949         estimate D2E/DX2                !
 ! D146  D(54,28,29,30)       -179.1885         estimate D2E/DX2                !
 ! D147  D(54,28,29,55)          0.4344         estimate D2E/DX2                !
 ! D148  D(28,29,30,31)         -0.7815         estimate D2E/DX2                !
 ! D149  D(28,29,30,56)        179.5227         estimate D2E/DX2                !
 ! D150  D(55,29,30,31)        179.5978         estimate D2E/DX2                !
 ! D151  D(55,29,30,56)         -0.098          estimate D2E/DX2                !
 ! D152  D(29,30,31,32)          0.5109         estimate D2E/DX2                !
 ! D153  D(29,30,31,57)       -179.7647         estimate D2E/DX2                !
 ! D154  D(56,30,31,32)       -179.7929         estimate D2E/DX2                !
 ! D155  D(56,30,31,57)         -0.0685         estimate D2E/DX2                !
 ! D156  D(30,31,32,23)          0.1523         estimate D2E/DX2                !
 ! D157  D(30,31,32,58)       -179.2083         estimate D2E/DX2                !
 ! D158  D(57,31,32,23)       -179.5731         estimate D2E/DX2                !
 ! D159  D(57,31,32,58)          1.0664         estimate D2E/DX2                !
 ! D160  D(25,33,34,35)          0.0074         estimate D2E/DX2                !
 ! D161  D(25,33,34,60)        179.7927         estimate D2E/DX2                !
 ! D162  D(59,33,34,35)       -179.7765         estimate D2E/DX2                !
 ! D163  D(59,33,34,60)          0.0089         estimate D2E/DX2                !
 ! D164  D(33,34,35,36)         -0.0264         estimate D2E/DX2                !
 ! D165  D(33,34,35,61)        179.8276         estimate D2E/DX2                !
 ! D166  D(60,34,35,36)       -179.8107         estimate D2E/DX2                !
 ! D167  D(60,34,35,61)          0.0433         estimate D2E/DX2                !
 ! D168  D(34,35,36,37)         -0.0679         estimate D2E/DX2                !
 ! D169  D(34,35,36,62)        179.7914         estimate D2E/DX2                !
 ! D170  D(61,35,36,37)       -179.9218         estimate D2E/DX2                !
 ! D171  D(61,35,36,62)         -0.0625         estimate D2E/DX2                !
 ! D172  D(35,36,37,25)          0.1809         estimate D2E/DX2                !
 ! D173  D(35,36,37,63)        179.8128         estimate D2E/DX2                !
 ! D174  D(62,36,37,25)       -179.6791         estimate D2E/DX2                !
 ! D175  D(62,36,37,63)         -0.0473         estimate D2E/DX2                !
 ! D176  D(26,38,39,40)         -1.2011         estimate D2E/DX2                !
 ! D177  D(26,38,39,65)        179.6841         estimate D2E/DX2                !
 ! D178  D(64,38,39,40)        175.9083         estimate D2E/DX2                !
 ! D179  D(64,38,39,65)         -3.2064         estimate D2E/DX2                !
 ! D180  D(38,39,40,41)          0.2315         estimate D2E/DX2                !
 ! D181  D(38,39,40,66)       -179.3635         estimate D2E/DX2                !
 ! D182  D(65,39,40,41)        179.3392         estimate D2E/DX2                !
 ! D183  D(65,39,40,66)         -0.2557         estimate D2E/DX2                !
 ! D184  D(39,40,41,42)          0.764          estimate D2E/DX2                !
 ! D185  D(39,40,41,67)       -179.5169         estimate D2E/DX2                !
 ! D186  D(66,40,41,42)       -179.6409         estimate D2E/DX2                !
 ! D187  D(66,40,41,67)          0.0783         estimate D2E/DX2                !
 ! D188  D(40,41,42,26)         -0.7873         estimate D2E/DX2                !
 ! D189  D(40,41,42,68)        179.3377         estimate D2E/DX2                !
 ! D190  D(67,41,42,26)        179.4911         estimate D2E/DX2                !
 ! D191  D(67,41,42,68)         -0.384          estimate D2E/DX2                !
 ! D192  D(10,69,70,72)       -176.105          estimate D2E/DX2                !
 ! D193  D(10,69,70,73)          2.4419         estimate D2E/DX2                !
 ! D194  D(71,69,70,72)          0.8203         estimate D2E/DX2                !
 ! D195  D(71,69,70,73)        179.3672         estimate D2E/DX2                !
 ! D196  D(10,69,71,74)        176.1507         estimate D2E/DX2                !
 ! D197  D(10,69,71,75)         -3.1277         estimate D2E/DX2                !
 ! D198  D(70,69,71,74)         -0.7926         estimate D2E/DX2                !
 ! D199  D(70,69,71,75)        179.929          estimate D2E/DX2                !
 ! D200  D(69,70,72,76)          0.2051         estimate D2E/DX2                !
 ! D201  D(69,70,72,77)        179.2156         estimate D2E/DX2                !
 ! D202  D(73,70,72,76)       -178.3283         estimate D2E/DX2                !
 ! D203  D(73,70,72,77)          0.6822         estimate D2E/DX2                !
 ! D204  D(69,71,74,76)         -0.2604         estimate D2E/DX2                !
 ! D205  D(69,71,74,78)       -179.7487         estimate D2E/DX2                !
 ! D206  D(75,71,74,76)        179.0163         estimate D2E/DX2                !
 ! D207  D(75,71,74,78)         -0.4719         estimate D2E/DX2                !
 ! D208  D(70,72,76,74)         -1.2177         estimate D2E/DX2                !
 ! D209  D(70,72,76,80)        177.0635         estimate D2E/DX2                !
 ! D210  D(77,72,76,74)        179.7746         estimate D2E/DX2                !
 ! D211  D(77,72,76,80)         -1.9442         estimate D2E/DX2                !
 ! D212  D(71,74,76,72)          1.2454         estimate D2E/DX2                !
 ! D213  D(71,74,76,80)       -177.0294         estimate D2E/DX2                !
 ! D214  D(78,74,76,72)       -179.2673         estimate D2E/DX2                !
 ! D215  D(78,74,76,80)          2.4578         estimate D2E/DX2                !
 ! D216  D(72,76,80,81)         36.9328         estimate D2E/DX2                !
 ! D217  D(72,76,80,82)        158.3055         estimate D2E/DX2                !
 ! D218  D(72,76,80,83)        -82.1549         estimate D2E/DX2                !
 ! D219  D(74,76,80,81)       -144.8217         estimate D2E/DX2                !
 ! D220  D(74,76,80,82)        -23.4491         estimate D2E/DX2                !
 ! D221  D(74,76,80,83)         96.0905         estimate D2E/DX2                !
 --------------------------------------------------------------------------------
 Stoichiometry    C40H34N3O4PS
 Framework group  C1[X(C40H34N3O4PS)]
 Deg. of freedom   243
 Full point group                 C1      NOp   1
 Largest Abelian subgroup         C1      NOp   1
 Largest concise Abelian subgroup C1      NOp   1
                         Standard orientation:                         
 ---------------------------------------------------------------------
 Center     Atomic      Atomic             Coordinates (Angstroms)
 Number     Number       Type             X           Y           Z
 ---------------------------------------------------------------------
      1          6           0       -3.703817    1.389756   -2.166581
      2          6           0       -4.682075    2.369993   -2.009630
      3          6           0       -4.937714    2.902264   -0.750150
      4          6           0       -4.209557    2.454513    0.351904
      5          6           0       -3.232233    1.479763    0.193896
      6          6           0       -2.975160    0.938658   -1.068747
      7          6           0       -1.917902   -0.137445   -1.256142
      8          8           0       -3.080743   -3.482996    0.182851
      9          8           0       -3.804501   -2.330905   -1.941513
     10         16           0       -3.434943   -2.255978   -0.529259
     11          7           0       -2.116520   -1.250575   -0.300776
     12          6           0        0.294466    3.714083    0.493231
     13          6           0        0.522974    5.054371    0.798223
     14          6           0        1.822925    5.527385    0.948992
     15          6           0        2.897319    4.652170    0.794210
     16          6           0        2.671278    3.313218    0.496560
     17          8           0        1.927382    0.555272    0.898582
     18          6           0        1.367317    2.835825    0.347067
     19          6           0        1.118768    1.399613   -0.060120
     20          8           0       -0.221397    1.043943    0.098985
     21          6           0       -0.535655    0.386270   -1.070119
     22          7           0        0.426665    0.358618   -1.912288
     23          6           0        2.146257   -1.792676   -0.763905
     24          7           0        1.511321    1.009850   -1.363791
     25          6           0        3.590188   -1.276529    1.619107
     26          6           0        4.400148    0.240886   -0.688294
     27         15           0        2.931527   -0.446060    0.136196
     28          6           0        2.503093   -2.150387   -2.063456
     29          6           0        1.842760   -3.199257   -2.695376
     30          6           0        0.824308   -3.885716   -2.039150
     31          6           0        0.471830   -3.535172   -0.737350
     32          6           0        1.132422   -2.490285   -0.097438
     33          6           0        4.162783   -2.547663    1.496899
     34          6           0        4.719213   -3.174272    2.606271
     35          6           0        4.707993   -2.536923    3.845217
     36          6           0        4.140074   -1.272147    3.972622
     37          6           0        3.583549   -0.640132    2.864193
     38          6           0        4.355478    0.776226   -1.983790
     39          6           0        5.515992    1.251954   -2.581771
     40          6           0        6.726159    1.224610   -1.892734
     41          6           0        6.775279    0.713635   -0.599565
     42          6           0        5.622963    0.216087   -0.000094
     43          1           0       -3.515350    0.964527   -3.148861
     44          1           0       -5.247876    2.709935   -2.871866
     45          1           0       -5.705156    3.660229   -0.624051
     46          1           0       -4.411339    2.859364    1.339165
     47          1           0       -1.958356   -0.504553   -2.287747
     48          1           0       -1.291936   -1.848043   -0.258448
     49          1           0       -0.719100    3.346780    0.368496
     50          1           0       -0.319950    5.729019    0.915653
     51          1           0        2.000514    6.572564    1.184185
     52          1           0        3.915227    5.013228    0.907840
     53          1           0        3.514819    2.640205    0.377769
     54          1           0        3.286233   -1.612299   -2.586372
     55          1           0        2.122260   -3.475873   -3.706712
     56          1           0        0.306910   -4.698159   -2.539124
     57          1           0       -0.319632   -4.071545   -0.221896
     58          1           0        0.865782   -2.225718    0.922764
     59          1           0        4.172827   -3.053749    0.535758
     60          1           0        5.158196   -4.161462    2.503459
     61          1           0        5.140164   -3.028000    4.711626
     62          1           0        4.126794   -0.774531    4.937130
     63          1           0        3.139047    0.343441    2.965905
     64          1           0        3.398514    0.852331   -2.483481
     65          1           0        5.469260    1.659132   -3.586676
     66          1           0        7.628059    1.607059   -2.360717
     67          1           0        7.712165    0.695575   -0.052332
     68          1           0        5.687132   -0.186767    1.003517
     69          6           0       -4.734052   -1.419890    0.336194
     70          6           0       -5.769159   -0.832836   -0.381560
     71          6           0       -4.660419   -1.311968    1.722193
     72          6           0       -6.736820   -0.111019    0.304958
     73          1           0       -5.800297   -0.921435   -1.461200
     74          6           0       -5.636605   -0.587327    2.391276
     75          1           0       -3.845871   -1.777525    2.267318
     76          6           0       -6.678834    0.033082    1.693429
     77          1           0       -7.541840    0.361483   -0.250491
     78          1           0       -5.584761   -0.494428    3.472335
     79          1           0       -2.678656    1.116360    1.053163
     80          6           0       -7.698197    0.873382    2.416600
     81          1           0       -8.689615    0.773595    1.965092
     82          1           0       -7.768980    0.598782    3.472626
     83          1           0       -7.419221    1.932676    2.365701
 ---------------------------------------------------------------------
 Rotational constants (GHZ):           0.0965898           0.0419902           0.0366687
 Electric field and nuclear coordinate derivatives read from checkpoint file.
 Rotating derivatives to standard orientation.
 Full mass-weighted force constant matrix:
 Low frequencies --- -143.7923   -7.8539   -0.0209   -0.0124    0.0079    2.7176
 Low frequencies ---    7.6371   13.0610   15.7967
 ******    1 imaginary frequencies (negative Signs) ****** 
 Diagonal vibrational polarizability:
      301.6717662     295.5106593     461.3863702
 Harmonic frequencies (cm**-1), IR intensities (KM/Mole), Raman scattering
 activities (A**4/AMU), depolarization ratios for plane and unpolarized
 incident light, reduced masses (AMU), force constants (mDyne/A),
 and normal coordinates:
                      1                      2                      3
                      A                      A                      A
 Frequencies --   -143.7913                11.5477                15.6046
 Red. masses --     11.8766                 6.1444                 5.3796
 Frc consts  --      0.1447                 0.0005                 0.0008
 IR Inten    --     75.6532                 2.0081                 0.1077
  Atom  AN      X      Y      Z        X      Y      Z        X      Y      Z
     1   6    -0.03  -0.01   0.01     0.02  -0.09  -0.04    -0.03  -0.07  -0.06
     2   6    -0.01   0.01   0.01     0.02  -0.08  -0.09    -0.05  -0.09  -0.08
     3   6    -0.00   0.02   0.01     0.01  -0.02  -0.12    -0.04  -0.05  -0.09
     4   6    -0.01   0.01   0.01    -0.01   0.03  -0.09    -0.01   0.00  -0.09
     5   6    -0.03  -0.01   0.01    -0.01   0.02  -0.04     0.00   0.02  -0.07
     6   6    -0.05  -0.03   0.01     0.00  -0.04  -0.01    -0.01  -0.02  -0.06
     7   6    -0.06  -0.04   0.01     0.00  -0.05   0.05     0.01  -0.01  -0.04
     8   8    -0.03  -0.03   0.01    -0.01   0.02   0.20     0.03   0.01   0.00
     9   8    -0.02  -0.03   0.01     0.03  -0.10   0.12    -0.04   0.01   0.03
    10  16    -0.03  -0.03   0.02     0.00  -0.02   0.13     0.01   0.01   0.01
    11   7    -0.04  -0.03   0.03    -0.01  -0.00   0.10     0.02   0.00  -0.03
    12   6     0.01   0.03  -0.00    -0.02  -0.03   0.02    -0.00   0.02  -0.08
    13   6     0.02   0.01   0.06    -0.03  -0.03   0.02    -0.01   0.02  -0.09
    14   6     0.03  -0.00   0.06    -0.04  -0.02   0.05    -0.01   0.01  -0.04
    15   6     0.02  -0.01   0.01    -0.03  -0.02   0.08    -0.01   0.00   0.01
    16   6     0.01   0.00  -0.05    -0.02  -0.02   0.07    -0.01  -0.00   0.02
    17   8     0.09  -0.07  -0.16     0.02  -0.03   0.01    -0.02   0.00  -0.02
    18   6     0.00   0.03  -0.07    -0.01  -0.02   0.04    -0.01   0.01  -0.02
    19   6    -0.10   0.14  -0.32    -0.00  -0.02   0.03    -0.00   0.01  -0.02
    20   8     0.00   0.05  -0.12     0.00  -0.04   0.04    -0.01   0.01  -0.04
    21   6    -0.08  -0.03  -0.07     0.00  -0.04   0.04     0.00   0.01  -0.04
    22   7    -0.16   0.14  -0.18    -0.01  -0.01   0.03     0.01   0.00  -0.03
    23   6     0.03   0.07   0.01     0.03   0.01  -0.04     0.00   0.01  -0.04
    24   7    -0.25   0.35  -0.32    -0.01  -0.00   0.02     0.01   0.00  -0.02
    25   6     0.09  -0.10   0.09     0.03  -0.03  -0.03    -0.06  -0.02   0.00
    26   6     0.03  -0.04   0.05     0.01   0.02  -0.01     0.01   0.00   0.04
    27  15     0.13  -0.10   0.17     0.02  -0.01  -0.01    -0.02   0.00  -0.01
    28   6     0.05   0.05   0.02     0.01   0.05  -0.06     0.01   0.05  -0.05
    29   6     0.03   0.06   0.01     0.00   0.07  -0.08     0.02   0.07  -0.08
    30   6     0.03   0.06   0.00     0.02   0.04  -0.09     0.03   0.04  -0.11
    31   6     0.02   0.07   0.00     0.04  -0.00  -0.08     0.02  -0.00  -0.10
    32   6     0.01   0.07  -0.00     0.04  -0.02  -0.05     0.01  -0.02  -0.06
    33   6     0.08  -0.10   0.08     0.03  -0.03  -0.06    -0.07  -0.02   0.01
    34   6     0.05  -0.08   0.10     0.04  -0.04  -0.07    -0.11  -0.04   0.02
    35   6     0.03  -0.05   0.09     0.05  -0.06  -0.06    -0.13  -0.05   0.02
    36   6     0.03  -0.05   0.08     0.05  -0.07  -0.04    -0.12  -0.04   0.02
    37   6     0.05  -0.07   0.07     0.04  -0.05  -0.02    -0.08  -0.02   0.01
    38   6    -0.02  -0.03   0.05    -0.01   0.07   0.01     0.03   0.05   0.06
    39   6    -0.04  -0.00   0.03    -0.01   0.10   0.02     0.05   0.06   0.09
    40   6    -0.02   0.01  -0.01    -0.01   0.07   0.00     0.04   0.02   0.11
    41   6     0.03   0.01  -0.01     0.01   0.02  -0.02     0.01  -0.03   0.09
    42   6     0.05  -0.02   0.02     0.02  -0.00  -0.02    -0.00  -0.04   0.05
    43   1    -0.04  -0.02   0.01     0.03  -0.13  -0.02    -0.04  -0.10  -0.05
    44   1    -0.00   0.02   0.00     0.03  -0.11  -0.12    -0.07  -0.13  -0.08
    45   1     0.01   0.03   0.00     0.01  -0.01  -0.16    -0.05  -0.06  -0.10
    46   1     0.00   0.02   0.00    -0.02   0.07  -0.11    -0.00   0.03  -0.10
    47   1    -0.10  -0.06   0.02     0.02  -0.10   0.07     0.02  -0.02  -0.04
    48   1    -0.03  -0.01   0.03    -0.00   0.00   0.15     0.02  -0.00  -0.04
    49   1     0.01   0.05  -0.02    -0.02  -0.03  -0.00    -0.00   0.02  -0.12
    50   1     0.03   0.02   0.10    -0.04  -0.03   0.01    -0.01   0.03  -0.13
    51   1     0.05  -0.01   0.09    -0.05  -0.02   0.06    -0.01   0.01  -0.05
    52   1     0.02  -0.02   0.02    -0.04  -0.01   0.10    -0.01  -0.00   0.05
    53   1    -0.00   0.00  -0.10    -0.01  -0.01   0.09    -0.01  -0.01   0.07
    54   1     0.07   0.02   0.03    -0.01   0.08  -0.05     0.01   0.08  -0.03
    55   1     0.04   0.05   0.01    -0.01   0.11  -0.10     0.03   0.10  -0.09
    56   1     0.03   0.06   0.00     0.01   0.06  -0.11     0.03   0.05  -0.13
    57   1     0.01   0.06  -0.00     0.05  -0.03  -0.08     0.02  -0.03  -0.11
    58   1    -0.02   0.08  -0.01     0.06  -0.06  -0.03     0.01  -0.05  -0.06
    59   1     0.08  -0.10   0.08     0.03  -0.01  -0.06    -0.06  -0.02   0.01
    60   1     0.05  -0.08   0.13     0.04  -0.04  -0.09    -0.12  -0.05   0.03
    61   1     0.02  -0.04   0.10     0.06  -0.08  -0.07    -0.16  -0.06   0.03
    62   1     0.02  -0.05   0.07     0.05  -0.08  -0.03    -0.13  -0.05   0.02
    63   1     0.03  -0.07   0.03     0.04  -0.05  -0.00    -0.07  -0.02   0.00
    64   1    -0.04  -0.04   0.08    -0.01   0.09   0.03     0.04   0.09   0.05
    65   1    -0.07   0.00   0.03    -0.03   0.13   0.03     0.07   0.10   0.11
    66   1    -0.04   0.03  -0.03    -0.01   0.09   0.01     0.05   0.02   0.13
    67   1     0.04   0.02  -0.04     0.02  -0.00  -0.03     0.01  -0.07   0.10
    68   1     0.09  -0.03   0.01     0.03  -0.04  -0.04    -0.02  -0.08   0.04
    69   6    -0.02  -0.02   0.01    -0.02   0.02   0.05     0.04   0.01   0.06
    70   6    -0.02  -0.01   0.01     0.00  -0.01  -0.01    -0.00  -0.01   0.10
    71   6    -0.02  -0.01   0.01    -0.06   0.09   0.05     0.11   0.04   0.05
    72   6    -0.01  -0.00   0.00    -0.01   0.03  -0.07     0.02  -0.02   0.14
    73   1    -0.02  -0.02   0.01     0.04  -0.06  -0.00    -0.05  -0.03   0.10
    74   6    -0.01  -0.00   0.00    -0.08   0.13  -0.02     0.13   0.04   0.09
    75   1    -0.02  -0.02   0.01    -0.08   0.11   0.10     0.14   0.06   0.02
    76   6    -0.01   0.00   0.00    -0.06   0.10  -0.08     0.09   0.01   0.13
    77   1    -0.00   0.01   0.00     0.00   0.01  -0.12    -0.01  -0.04   0.17
    78   1    -0.01   0.00   0.00    -0.11   0.18  -0.02     0.19   0.06   0.09
    79   1    -0.03  -0.02   0.01    -0.02   0.06  -0.01     0.02   0.06  -0.07
    80   6    -0.00   0.01   0.00    -0.07   0.14  -0.15     0.11   0.01   0.17
    81   1    -0.00   0.01   0.00    -0.07   0.10  -0.16     0.10   0.01   0.20
    82   1    -0.00   0.01   0.00    -0.09   0.21  -0.13     0.14  -0.01   0.17
    83   1     0.00   0.01  -0.00    -0.08   0.14  -0.22     0.12   0.00   0.17
                      4                      5                      6
                      A                      A                      A
 Frequencies --     18.5997                24.5748                25.1515
 Red. masses --      5.3626                 5.3804                 4.7473
 Frc consts  --      0.0011                 0.0019                 0.0018
 IR Inten    --      1.0828                 0.8242                 0.6383
  Atom  AN      X      Y      Z        X      Y      Z        X      Y      Z
     1   6     0.01  -0.02  -0.05    -0.03  -0.07  -0.09    -0.03   0.00   0.01
     2   6     0.02  -0.01  -0.06    -0.07  -0.10  -0.13    -0.04  -0.01   0.00
     3   6     0.03   0.01  -0.06    -0.08  -0.06  -0.15    -0.04  -0.00  -0.00
     4   6     0.02   0.01  -0.06    -0.05   0.02  -0.14    -0.03   0.02  -0.00
     5   6     0.01  -0.01  -0.05    -0.02   0.05  -0.10    -0.01   0.03   0.00
     6   6     0.00  -0.02  -0.05    -0.01   0.01  -0.08    -0.01   0.02   0.00
     7   6    -0.01  -0.03  -0.04     0.02   0.03  -0.03    -0.00   0.03   0.01
     8   8    -0.09  -0.01  -0.07     0.06   0.04  -0.00     0.04   0.03   0.05
     9   8    -0.09   0.04  -0.04     0.03   0.02   0.00     0.03  -0.00   0.03
    10  16    -0.07   0.01  -0.04     0.04   0.03  -0.00     0.02   0.02   0.03
    11   7    -0.03  -0.04  -0.05     0.03   0.04  -0.02     0.01   0.04   0.03
    12   6    -0.05  -0.06   0.05     0.02   0.01   0.17     0.09   0.04  -0.03
    13   6    -0.06  -0.06   0.08     0.04  -0.01   0.23     0.13   0.04  -0.04
    14   6    -0.07  -0.05   0.07     0.05  -0.02   0.18     0.14   0.00  -0.05
    15   6    -0.06  -0.03   0.04     0.04  -0.01   0.06     0.12  -0.03  -0.05
    16   6    -0.04  -0.03   0.02     0.02   0.01  -0.00     0.07  -0.03  -0.04
    17   8    -0.02  -0.04   0.01    -0.01   0.01   0.01    -0.02  -0.01  -0.00
    18   6    -0.04  -0.04   0.02     0.01   0.02   0.05     0.06   0.01  -0.03
    19   6    -0.02  -0.04   0.00     0.00   0.03   0.01     0.01   0.02  -0.02
    20   8    -0.02  -0.05  -0.01     0.00   0.04  -0.01     0.00   0.06  -0.02
    21   6    -0.00  -0.05  -0.02     0.01   0.05  -0.02    -0.00   0.03  -0.01
    22   7     0.00  -0.03  -0.01     0.02   0.06  -0.01     0.00  -0.01   0.00
    23   6     0.02  -0.03   0.01    -0.04   0.01   0.02    -0.01  -0.01  -0.00
    24   7    -0.01  -0.03   0.00     0.02   0.05   0.01     0.01  -0.01  -0.01
    25   6     0.04  -0.01  -0.00     0.00   0.01  -0.00    -0.01  -0.02  -0.02
    26   6    -0.02   0.02   0.00    -0.01  -0.02  -0.02    -0.02   0.01   0.01
    27  15     0.01  -0.01   0.01    -0.01   0.01   0.00    -0.02  -0.01  -0.01
    28   6     0.07  -0.08   0.04    -0.06  -0.00   0.02     0.01  -0.04   0.01
    29   6     0.09  -0.10   0.06    -0.08  -0.01   0.04     0.02  -0.06   0.02
    30   6     0.06  -0.07   0.05    -0.07   0.01   0.06     0.00  -0.04   0.02
    31   6     0.01  -0.02   0.02    -0.04   0.02   0.07    -0.02  -0.00   0.01
    32   6    -0.01   0.01   0.00    -0.03   0.02   0.04    -0.02   0.01  -0.00
    33   6     0.10   0.03  -0.03    -0.00   0.01  -0.00     0.08   0.02  -0.07
    34   6     0.13   0.03  -0.04     0.01   0.02  -0.01     0.07  -0.01  -0.08
    35   6     0.09   0.00  -0.02     0.03   0.03  -0.01    -0.03  -0.08  -0.04
    36   6     0.02  -0.03   0.00     0.04   0.03  -0.01    -0.12  -0.13   0.01
    37   6    -0.00  -0.03   0.01     0.02   0.02  -0.01    -0.11  -0.10   0.02
    38   6    -0.02  -0.05  -0.03    -0.01  -0.06  -0.04     0.00  -0.06  -0.02
    39   6    -0.03  -0.01  -0.02    -0.01  -0.10  -0.06    -0.00  -0.02   0.00
    40   6    -0.05   0.11   0.01    -0.00  -0.10  -0.07    -0.03   0.11   0.06
    41   6    -0.05   0.18   0.04    -0.00  -0.06  -0.06    -0.06   0.18   0.09
    42   6    -0.03   0.13   0.03    -0.01  -0.02  -0.03    -0.05   0.14   0.07
    43   1     0.00  -0.03  -0.05    -0.03  -0.11  -0.07    -0.03  -0.01   0.01
    44   1     0.03  -0.00  -0.06    -0.09  -0.17  -0.14    -0.05  -0.03   0.00
    45   1     0.04   0.02  -0.07    -0.11  -0.08  -0.18    -0.05  -0.02  -0.00
    46   1     0.03   0.02  -0.06    -0.06   0.06  -0.15    -0.03   0.03  -0.01
    47   1     0.00  -0.02  -0.04     0.05   0.01  -0.03    -0.01   0.02   0.02
    48   1    -0.05  -0.06  -0.07     0.03   0.05  -0.00     0.02   0.05   0.03
    49   1    -0.04  -0.07   0.05     0.02   0.01   0.21     0.07   0.07  -0.02
    50   1    -0.07  -0.08   0.10     0.05  -0.02   0.32     0.15   0.07  -0.04
    51   1    -0.08  -0.05   0.09     0.06  -0.03   0.23     0.18  -0.00  -0.06
    52   1    -0.06  -0.02   0.04     0.05  -0.01   0.02     0.13  -0.06  -0.06
    53   1    -0.03  -0.01  -0.01     0.02   0.02  -0.09     0.05  -0.05  -0.04
    54   1     0.10  -0.11   0.05    -0.07  -0.01  -0.00     0.03  -0.06   0.01
    55   1     0.13  -0.15   0.08    -0.10  -0.02   0.04     0.03  -0.08   0.04
    56   1     0.08  -0.09   0.06    -0.08   0.00   0.08     0.01  -0.04   0.03
    57   1    -0.01   0.00   0.01    -0.04   0.03   0.08    -0.03   0.01   0.01
    58   1    -0.05   0.05  -0.02    -0.01   0.03   0.05    -0.03   0.03  -0.01
    59   1     0.13   0.05  -0.04    -0.02   0.01  -0.00     0.15   0.08  -0.10
    60   1     0.17   0.05  -0.06     0.01   0.02  -0.01     0.14   0.03  -0.12
    61   1     0.11   0.00  -0.03     0.04   0.03  -0.02    -0.03  -0.10  -0.05
    62   1    -0.01  -0.05   0.01     0.05   0.03  -0.01    -0.20  -0.19   0.04
    63   1    -0.05  -0.06   0.03     0.03   0.02  -0.01    -0.18  -0.13   0.06
    64   1    -0.01  -0.13  -0.05    -0.01  -0.05  -0.03     0.02  -0.15  -0.07
    65   1    -0.03  -0.07  -0.05    -0.01  -0.13  -0.08     0.02  -0.08  -0.02
    66   1    -0.06   0.14   0.01     0.00  -0.13  -0.09    -0.04   0.14   0.08
    67   1    -0.06   0.27   0.06     0.00  -0.06  -0.06    -0.08   0.28   0.14
    68   1    -0.03   0.19   0.06    -0.00   0.01  -0.02    -0.07   0.20   0.09
    69   6    -0.02   0.04  -0.00     0.03   0.02   0.01     0.00   0.01   0.02
    70   6    -0.02   0.07   0.03    -0.01  -0.05   0.02    -0.01  -0.03   0.01
    71   6     0.02   0.03  -0.01     0.06   0.05   0.00    -0.01   0.02   0.02
    72   6     0.02   0.10   0.06    -0.03  -0.08   0.03    -0.04  -0.06  -0.01
    73   1    -0.06   0.07   0.03    -0.04  -0.08   0.02     0.00  -0.04   0.01
    74   6     0.07   0.06   0.02     0.05   0.03   0.01    -0.04  -0.01   0.01
    75   1     0.03   0.01  -0.03     0.10   0.11  -0.01     0.00   0.05   0.03
    76   6     0.07   0.10   0.05    -0.00  -0.04   0.02    -0.05  -0.05  -0.01
    77   1     0.02   0.12   0.08    -0.07  -0.13   0.04    -0.05  -0.09  -0.01
    78   1     0.10   0.06   0.02     0.07   0.06   0.01    -0.05  -0.00   0.01
    79   1     0.00  -0.01  -0.05     0.00   0.11  -0.09    -0.00   0.05   0.00
    80   6     0.12   0.13   0.09    -0.03  -0.08   0.03    -0.09  -0.09  -0.02
    81   1     0.11   0.19   0.10    -0.03  -0.12   0.04    -0.09  -0.13  -0.02
    82   1     0.13   0.12   0.08    -0.00  -0.08   0.03    -0.09  -0.08  -0.02
    83   1     0.17   0.12   0.10    -0.07  -0.07   0.02    -0.14  -0.08  -0.02
                      7                      8                      9
                      A                      A                      A
 Frequencies --     31.4001                37.8633                39.2175
 Red. masses --      4.7880                 4.5460                 4.8142
 Frc consts  --      0.0028                 0.0038                 0.0044
 IR Inten    --      0.5875                 1.1652                 0.3668
  Atom  AN      X      Y      Z        X      Y      Z        X      Y      Z
     1   6    -0.01  -0.02  -0.03    -0.01   0.01   0.01    -0.05   0.01   0.02
     2   6    -0.03  -0.03  -0.04    -0.01   0.01   0.02    -0.06  -0.00   0.04
     3   6    -0.03  -0.00  -0.06    -0.01   0.00   0.02    -0.06  -0.02   0.05
     4   6    -0.01   0.04  -0.05    -0.00  -0.00   0.02    -0.04  -0.03   0.04
     5   6     0.00   0.05  -0.03    -0.01  -0.01   0.01    -0.04  -0.02   0.02
     6   6    -0.00   0.02  -0.02    -0.01  -0.00   0.01    -0.04  -0.00   0.01
     7   6    -0.00   0.01   0.01    -0.02  -0.01  -0.00    -0.03   0.02  -0.01
     8   8    -0.08   0.03  -0.05    -0.02   0.01   0.03     0.07  -0.02   0.01
     9   8    -0.06   0.09  -0.02    -0.03  -0.01   0.02     0.04  -0.07  -0.00
    10  16    -0.06   0.05  -0.02    -0.02   0.00   0.02     0.04  -0.04  -0.00
    11   7    -0.04   0.02   0.01    -0.02  -0.00   0.01     0.01   0.00  -0.02
    12   6     0.04   0.01  -0.13     0.04  -0.03   0.15     0.05   0.05  -0.09
    13   6     0.04   0.02  -0.15     0.08  -0.04   0.18     0.09   0.03  -0.06
    14   6     0.04  -0.02  -0.02     0.09  -0.05   0.04     0.10  -0.04   0.09
    15   6     0.03  -0.05   0.12     0.08  -0.04  -0.14     0.07  -0.10   0.20
    16   6     0.03  -0.06   0.14     0.04  -0.02  -0.16     0.03  -0.08   0.16
    17   8     0.01  -0.03   0.01    -0.03  -0.02  -0.02    -0.06  -0.04  -0.01
    18   6     0.03  -0.02   0.01     0.02  -0.02  -0.02     0.02  -0.01   0.01
    19   6     0.01  -0.02   0.02    -0.01  -0.02  -0.02    -0.02   0.01  -0.01
    20   8     0.01  -0.01   0.02    -0.01   0.01  -0.02    -0.03   0.05  -0.03
    21   6     0.00  -0.01   0.02    -0.01  -0.01  -0.01    -0.03   0.03  -0.02
    22   7     0.00  -0.01   0.02    -0.01  -0.04  -0.00    -0.02   0.01  -0.01
    23   6     0.03  -0.01   0.00     0.03  -0.02  -0.04    -0.03  -0.02  -0.01
    24   7     0.01  -0.02   0.01    -0.00  -0.04  -0.01    -0.02   0.01  -0.01
    25   6     0.04  -0.01   0.01    -0.03   0.02  -0.00    -0.03   0.01  -0.00
    26   6     0.02  -0.00   0.01    -0.01   0.01  -0.00    -0.05   0.00  -0.01
    27  15     0.03  -0.02   0.01    -0.02  -0.01  -0.03    -0.04  -0.02  -0.01
    28   6     0.07  -0.03   0.01     0.09  -0.03  -0.02    -0.02  -0.03  -0.01
    29   6     0.07  -0.02   0.00     0.13  -0.04  -0.04    -0.02  -0.03  -0.01
    30   6     0.04  -0.00  -0.02     0.10  -0.04  -0.09    -0.02  -0.03  -0.01
    31   6     0.01   0.02  -0.04     0.04  -0.03  -0.11    -0.02  -0.03  -0.01
    32   6     0.00   0.01  -0.02     0.00  -0.02  -0.09    -0.03  -0.02  -0.02
    33   6    -0.00  -0.03   0.03    -0.10  -0.02   0.06    -0.06  -0.01   0.03
    34   6     0.03  -0.00   0.03    -0.11   0.01   0.08    -0.04   0.03   0.04
    35   6     0.11   0.04   0.00    -0.04   0.08   0.04     0.02   0.09   0.01
    36   6     0.15   0.07  -0.02     0.04   0.13  -0.02     0.06   0.11  -0.02
    37   6     0.12   0.04  -0.01     0.04   0.09  -0.04     0.03   0.07  -0.03
    38   6     0.00   0.02   0.02     0.00   0.03   0.01    -0.04  -0.02  -0.02
    39   6    -0.00   0.03   0.01     0.00   0.06   0.03    -0.05  -0.00  -0.01
    40   6     0.01   0.01  -0.00    -0.01   0.06   0.05    -0.06   0.04   0.00
    41   6     0.02  -0.01  -0.01    -0.01   0.03   0.03    -0.06   0.05   0.01
    42   6     0.03  -0.02  -0.01    -0.01   0.00   0.01    -0.05   0.03   0.00
    43   1    -0.02  -0.05  -0.02    -0.02   0.01   0.01    -0.05   0.02   0.02
    44   1    -0.04  -0.06  -0.05    -0.01   0.01   0.02    -0.07   0.00   0.05
    45   1    -0.04  -0.01  -0.07    -0.00   0.00   0.03    -0.06  -0.03   0.07
    46   1    -0.01   0.06  -0.06    -0.00  -0.01   0.02    -0.04  -0.05   0.05
    47   1     0.01   0.01   0.01    -0.03  -0.01   0.00    -0.03   0.02  -0.02
    48   1    -0.05  -0.00   0.02    -0.02  -0.01  -0.00     0.03   0.02  -0.04
    49   1     0.04   0.04  -0.22     0.03  -0.02   0.25     0.05   0.10  -0.20
    50   1     0.05   0.05  -0.26     0.09  -0.05   0.31     0.12   0.08  -0.14
    51   1     0.05  -0.01  -0.04     0.12  -0.06   0.06     0.13  -0.05   0.12
    52   1     0.03  -0.08   0.22     0.09  -0.04  -0.25     0.08  -0.15   0.32
    53   1     0.02  -0.08   0.25     0.03  -0.02  -0.30     0.01  -0.12   0.25
    54   1     0.09  -0.04   0.03     0.12  -0.03   0.01    -0.02  -0.03  -0.01
    55   1     0.09  -0.03   0.01     0.18  -0.05  -0.03    -0.01  -0.04  -0.01
    56   1     0.04   0.00  -0.03     0.13  -0.05  -0.11    -0.01  -0.03  -0.01
    57   1    -0.02   0.03  -0.05     0.01  -0.03  -0.14    -0.03  -0.02  -0.02
    58   1    -0.03   0.02  -0.03    -0.05  -0.02  -0.10    -0.04  -0.02  -0.02
    59   1    -0.06  -0.06   0.05    -0.16  -0.08   0.09    -0.11  -0.05   0.05
    60   1    -0.00  -0.02   0.04    -0.17  -0.02   0.12    -0.07   0.01   0.07
    61   1     0.14   0.07  -0.00    -0.04   0.11   0.06     0.04   0.12   0.02
    62   1     0.22   0.10  -0.04     0.10   0.18  -0.05     0.10   0.15  -0.05
    63   1     0.15   0.06  -0.03     0.10   0.12  -0.08     0.05   0.08  -0.06
    64   1    -0.00   0.02   0.03     0.01   0.03  -0.00    -0.04  -0.05  -0.03
    65   1    -0.01   0.04   0.02     0.01   0.08   0.04    -0.05  -0.02  -0.02
    66   1     0.00   0.02  -0.01    -0.01   0.08   0.07    -0.06   0.05   0.01
    67   1     0.03  -0.02  -0.02    -0.02   0.03   0.04    -0.06   0.08   0.02
    68   1     0.04  -0.03  -0.01    -0.02  -0.02   0.00    -0.05   0.05   0.01
    69   6    -0.05   0.04   0.00    -0.02   0.01   0.01     0.03  -0.04  -0.01
    70   6    -0.08   0.02   0.02    -0.02   0.01   0.01     0.04  -0.04  -0.02
    71   6    -0.04   0.03   0.00    -0.03   0.01   0.01     0.04  -0.01  -0.02
    72   6    -0.11  -0.04   0.04    -0.02   0.00   0.00     0.06   0.01  -0.04
    73   1    -0.09   0.03   0.02    -0.02   0.01   0.01     0.03  -0.07  -0.02
    74   6    -0.07  -0.03   0.03    -0.03   0.01   0.01     0.06   0.03  -0.03
    75   1    -0.02   0.05  -0.01    -0.03   0.01   0.02     0.03  -0.01  -0.01
    76   6    -0.10  -0.06   0.05    -0.03   0.00   0.00     0.08   0.05  -0.04
    77   1    -0.13  -0.07   0.06    -0.02   0.00   0.00     0.08   0.02  -0.05
    78   1    -0.06  -0.04   0.03    -0.04   0.01   0.01     0.07   0.06  -0.04
    79   1     0.01   0.07  -0.02    -0.01  -0.01   0.01    -0.03  -0.03   0.01
    80   6    -0.15  -0.14   0.08    -0.04  -0.00   0.00     0.12   0.12  -0.07
    81   1    -0.13  -0.15   0.05    -0.04  -0.02   0.00     0.11   0.11  -0.03
    82   1    -0.16  -0.21   0.06    -0.04   0.01   0.00     0.15   0.19  -0.05
    83   1    -0.18  -0.13   0.15    -0.05   0.00  -0.01     0.15   0.11  -0.15
                     10                     11                     12
                      A                      A                      A
 Frequencies --     45.5969                50.5797                54.1761
 Red. masses --      4.9982                 3.3115                 1.3611
 Frc consts  --      0.0061                 0.0050                 0.0024
 IR Inten    --      0.1435                 0.0790                 0.4065
  Atom  AN      X      Y      Z        X      Y      Z        X      Y      Z
     1   6     0.01   0.04   0.01    -0.08  -0.04   0.05    -0.02  -0.02   0.01
     2   6     0.02   0.04   0.02    -0.12  -0.09   0.07    -0.03  -0.03   0.00
     3   6     0.02   0.03   0.03    -0.11  -0.09   0.08    -0.04  -0.03   0.00
     4   6     0.02   0.02   0.02    -0.06  -0.05   0.06    -0.03  -0.02   0.00
     5   6     0.01   0.01   0.01    -0.01  -0.00   0.03    -0.02  -0.00   0.01
     6   6     0.00   0.02   0.01    -0.02  -0.00   0.03    -0.01  -0.01   0.01
     7   6    -0.00   0.01  -0.00    -0.01   0.02   0.01    -0.01   0.00   0.01
     8   8     0.03   0.03   0.06    -0.03  -0.00  -0.05    -0.01  -0.01  -0.01
     9   8     0.01  -0.02   0.04    -0.01   0.03  -0.04    -0.00   0.01  -0.01
    10  16     0.01   0.01   0.04    -0.02   0.01  -0.03    -0.01  -0.00  -0.01
    11   7     0.01   0.02   0.01    -0.01  -0.00  -0.01    -0.01  -0.00   0.01
    12   6    -0.03   0.01  -0.04     0.00   0.01   0.01     0.01   0.01   0.01
    13   6    -0.05   0.00   0.01     0.00   0.02  -0.02     0.03   0.01   0.00
    14   6    -0.06   0.00   0.10     0.00   0.03  -0.05     0.03   0.00  -0.01
    15   6    -0.05   0.01   0.15     0.00   0.03  -0.06     0.02  -0.01  -0.01
    16   6    -0.03   0.02   0.10     0.00   0.02  -0.02     0.01  -0.00  -0.00
    17   8    -0.01   0.02  -0.03     0.01   0.01   0.03    -0.01   0.00   0.01
    18   6    -0.02   0.02   0.01     0.00   0.01   0.01     0.01   0.01   0.01
    19   6    -0.00   0.02  -0.01     0.00   0.01   0.03    -0.00   0.01   0.01
    20   8    -0.00   0.01  -0.02     0.00   0.01   0.03    -0.01   0.01   0.01
    21   6     0.00   0.01  -0.02    -0.01   0.02   0.02    -0.01   0.00   0.02
    22   7     0.00   0.02  -0.02    -0.00   0.01   0.02    -0.01  -0.00   0.02
    23   6     0.04   0.01  -0.03     0.01   0.02   0.01     0.01   0.01   0.00
    24   7    -0.00   0.03  -0.02    -0.00   0.00   0.03    -0.01   0.00   0.01
    25   6    -0.01   0.03  -0.02     0.01  -0.01   0.01     0.00   0.01   0.01
    26   6     0.00   0.01  -0.04     0.01   0.01   0.02    -0.00   0.01   0.00
    27  15     0.01   0.03  -0.03     0.01   0.01   0.02    -0.00   0.01   0.01
    28   6     0.14  -0.06   0.02     0.05  -0.00   0.03     0.02   0.01   0.00
    29   6     0.21  -0.11   0.03     0.08  -0.02   0.03     0.03   0.01  -0.01
    30   6     0.16  -0.08  -0.00     0.06  -0.01   0.01     0.03   0.00  -0.01
    31   6     0.06  -0.00  -0.05     0.02   0.01  -0.01     0.02  -0.00  -0.01
    32   6    -0.00   0.04  -0.07    -0.00   0.02  -0.01     0.01  -0.00  -0.01
    33   6     0.01   0.04  -0.01     0.02  -0.00  -0.02     0.03   0.02  -0.00
    34   6    -0.06   0.02   0.01     0.03  -0.02  -0.03     0.04   0.03  -0.01
    35   6    -0.15  -0.02   0.02     0.03  -0.04  -0.02     0.01   0.01   0.00
    36   6    -0.16  -0.02   0.02     0.02  -0.05   0.00    -0.02  -0.01   0.01
    37   6    -0.09   0.00  -0.00     0.02  -0.03   0.02    -0.03  -0.01   0.01
    38   6    -0.00  -0.03  -0.06     0.01   0.02   0.02    -0.00   0.02   0.01
    39   6     0.01  -0.10  -0.10     0.01  -0.00   0.01    -0.00  -0.00  -0.00
    40   6     0.02  -0.12  -0.12     0.02  -0.05  -0.01     0.01  -0.03  -0.02
    41   6     0.02  -0.06  -0.10     0.03  -0.06  -0.01     0.01  -0.04  -0.02
    42   6     0.01   0.00  -0.06     0.02  -0.03  -0.00     0.01  -0.02  -0.01
    43   1     0.00   0.04   0.01    -0.09  -0.04   0.05    -0.02  -0.02   0.01
    44   1     0.02   0.06   0.03    -0.16  -0.12   0.09    -0.04  -0.05   0.00
    45   1     0.03   0.04   0.04    -0.15  -0.13   0.09    -0.05  -0.04  -0.00
    46   1     0.03   0.01   0.03    -0.05  -0.06   0.06    -0.04  -0.02   0.00
    47   1    -0.02   0.01  -0.00     0.00   0.04   0.00     0.00   0.00   0.01
    48   1     0.01   0.03   0.01    -0.01  -0.01  -0.04    -0.01  -0.00   0.01
    49   1    -0.02   0.01  -0.10     0.00   0.00   0.04     0.01   0.02   0.01
[...]
 Vib (Bot)   44  0.365425D+00         -0.437202         -1.006694
 Vib (Bot)   45  0.362225D+00         -0.441022         -1.015491
 Vib (Bot)   46  0.360177D+00         -0.443484         -1.021159
 Vib (Bot)   47  0.356989D+00         -0.447345         -1.030050
 Vib (Bot)   48  0.353858D+00         -0.451171         -1.038860
 Vib (Bot)   49  0.351258D+00         -0.454373         -1.046234
 Vib (Bot)   50  0.348326D+00         -0.458014         -1.054617
 Vib (Bot)   51  0.342194D+00         -0.465728         -1.072378
 Vib (Bot)   52  0.337405D+00         -0.471849         -1.086473
 Vib (Bot)   53  0.304559D+00         -0.516328         -1.188890
 Vib (Bot)   54  0.296870D+00         -0.527434         -1.214462
 Vib (Bot)   55  0.284778D+00         -0.545493         -1.256045
 Vib (Bot)   56  0.272613D+00         -0.564454         -1.299703
 Vib (Bot)   57  0.265578D+00         -0.575809         -1.325848
 Vib (Bot)   58  0.258226D+00         -0.588000         -1.353920
 Vib (Bot)   59  0.255160D+00         -0.593187         -1.365864
 Vib (V=0)                            17.863946         41.133255
 Vib (V=0)    1  0.163438D+02          1.213353          2.793849
 Vib (V=0)    2  0.122279D+02          1.087352          2.503720
 Vib (V=0)    3  0.103419D+02          1.014600          2.336203
 Vib (V=0)    4  0.795373D+01          0.900571          2.073640
 Vib (V=0)    5  0.778333D+01          0.891165          2.051984
 Vib (V=0)    6  0.633906D+01          0.802025          1.846731
 Vib (V=0)    7  0.534773D+01          0.728170          1.676673
 Vib (V=0)    8  0.518155D+01          0.714459          1.645103
 Vib (V=0)    9  0.453195D+01          0.656286          1.511153
 Vib (V=0)   10  0.413906D+01          0.616902          1.420469
 Vib (V=0)   11  0.390064D+01          0.591136          1.361142
 Vib (V=0)   12  0.383915D+01          0.584235          1.345251
 Vib (V=0)   13  0.357249D+01          0.552971          1.273263
 Vib (V=0)   14  0.350656D+01          0.544881          1.254634
 Vib (V=0)   15  0.319427D+01          0.504371          1.161358
 Vib (V=0)   16  0.300465D+01          0.477794          1.100162
 Vib (V=0)   17  0.269931D+01          0.431252          0.992995
 Vib (V=0)   18  0.259278D+01          0.413766          0.952731
 Vib (V=0)   19  0.248163D+01          0.394737          0.908915
 Vib (V=0)   20  0.226598D+01          0.355255          0.818006
 Vib (V=0)   21  0.215312D+01          0.333068          0.766918
 Vib (V=0)   22  0.190638D+01          0.280210          0.645206
 Vib (V=0)   23  0.179595D+01          0.254295          0.585537
 Vib (V=0)   24  0.174116D+01          0.240839          0.554553
 Vib (V=0)   25  0.161205D+01          0.207379          0.477507
 Vib (V=0)   26  0.150063D+01          0.176275          0.405888
 Vib (V=0)   27  0.144824D+01          0.160841          0.370349
 Vib (V=0)   28  0.140474D+01          0.147596          0.339853
 Vib (V=0)   29  0.138705D+01          0.142092          0.327179
 Vib (V=0)   30  0.135899D+01          0.133216          0.306740
 Vib (V=0)   31  0.134166D+01          0.127643          0.293909
 Vib (V=0)   32  0.132538D+01          0.122342          0.281702
 Vib (V=0)   33  0.130471D+01          0.115515          0.265983
 Vib (V=0)   34  0.129075D+01          0.110842          0.255223
 Vib (V=0)   35  0.128599D+01          0.109239          0.251531
 Vib (V=0)   36  0.126965D+01          0.103684          0.238742
 Vib (V=0)   37  0.124198D+01          0.094113          0.216704
 Vib (V=0)   38  0.123366D+01          0.091196          0.209986
 Vib (V=0)   39  0.120372D+01          0.080526          0.185419
 Vib (V=0)   40  0.118268D+01          0.072868          0.167784
 Vib (V=0)   41  0.116111D+01          0.064873          0.149377
 Vib (V=0)   42  0.114921D+01          0.060399          0.139073
 Vib (V=0)   43  0.114374D+01          0.058328          0.134305
 Vib (V=0)   44  0.111930D+01          0.048947          0.112706
 Vib (V=0)   45  0.111742D+01          0.048216          0.111022
 Vib (V=0)   46  0.111622D+01          0.047750          0.109948
 Vib (V=0)   47  0.111436D+01          0.047027          0.108283
 Vib (V=0)   48  0.111255D+01          0.046319          0.106653
 Vib (V=0)   49  0.111105D+01          0.045734          0.105306
 Vib (V=0)   50  0.110937D+01          0.045076          0.103792
 Vib (V=0)   51  0.110588D+01          0.043710          0.100646
 Vib (V=0)   52  0.110319D+01          0.042652          0.098209
 Vib (V=0)   53  0.108545D+01          0.035611          0.081998
 Vib (V=0)   54  0.108149D+01          0.034023          0.078341
 Vib (V=0)   55  0.107541D+01          0.031575          0.072704
 Vib (V=0)   56  0.106949D+01          0.029176          0.067181
 Vib (V=0)   57  0.106615D+01          0.027820          0.064059
 Vib (V=0)   58  0.106274D+01          0.026429          0.060854
 Vib (V=0)   59  0.106134D+01          0.025856          0.059536
 Electronic      0.100000D+01          0.000000          0.000000
 Translational   0.513686D+09          8.710698         20.057123
 Rotational      0.590111D+08          7.770934         17.893236
 ***** Axes restored to original set *****
 -------------------------------------------------------------------
 Center     Atomic                   Forces (Hartrees/Bohr)
 Number     Number              X              Y              Z
 -------------------------------------------------------------------
      1        6           0.000000085    0.000000463   -0.000000019
      2        6           0.000000317    0.000000921    0.000000069
      3        6           0.000000413    0.000000810    0.000000048
      4        6           0.000000109    0.000000012    0.000000141
      5        6          -0.000000175   -0.000000015    0.000000032
      6        6           0.000000450    0.000000738   -0.000000200
      7        6          -0.000000274    0.000000339    0.000000242
      8        8          -0.000000259    0.000000383   -0.000001013
      9        8           0.000000000    0.000000457   -0.000000894
     10       16           0.000000020    0.000000304   -0.000000008
     11        7          -0.000000230    0.000000061   -0.000000493
     12        6           0.000000267   -0.000000156    0.000000573
     13        6           0.000000367   -0.000000027    0.000000882
     14        6           0.000000249   -0.000000229    0.000000996
     15        6           0.000000332   -0.000000437    0.000000890
     16        6           0.000000259   -0.000000316    0.000000784
     17        8           0.000000697   -0.000000456    0.000000676
     18        6          -0.000000018   -0.000000068    0.000000436
     19        6          -0.000000296    0.000000099    0.000000312
     20        8           0.000000132   -0.000000385   -0.000000072
     21        6           0.000000196    0.000000520    0.000000241
     22        7          -0.000000323    0.000000605   -0.000000205
     23        6           0.000000002   -0.000000281   -0.000000032
     24        7           0.000000336    0.000000187   -0.000000094
     25        6          -0.000000391   -0.000000436    0.000000070
     26        6           0.000000012   -0.000000276    0.000000548
     27       15          -0.000000369    0.000000050   -0.000000361
     28        6          -0.000000021    0.000000342   -0.000000082
     29        6          -0.000000035    0.000000122   -0.000000354
     30        6          -0.000000215    0.000000354   -0.000000695
     31        6          -0.000000282    0.000000187   -0.000000620
     32        6          -0.000000175   -0.000000049   -0.000000260
     33        6          -0.000000243   -0.000000594   -0.000000275
     34        6          -0.000000327   -0.000000843   -0.000000281
     35        6          -0.000000411   -0.000000917   -0.000000088
     36        6          -0.000000323   -0.000000955   -0.000000087
     37        6          -0.000000259   -0.000000782    0.000000195
     38        6           0.000000081   -0.000000173    0.000000148
     39        6           0.000000158   -0.000000001    0.000000479
     40        6           0.000000314   -0.000000157    0.000000660
     41        6           0.000000034   -0.000000380    0.000000425
     42        6           0.000000110   -0.000000138    0.000000383
     43        1           0.000000242    0.000000806   -0.000000091
     44        1           0.000000359    0.000000891    0.000000106
     45        1           0.000000268    0.000000543    0.000000257
     46        1           0.000000138    0.000000156    0.000000163
     47        1           0.000000201    0.000000586   -0.000000277
     48        1           0.000000179    0.000000154   -0.000000692
     49        1           0.000000224    0.000000041    0.000000486
     50        1           0.000000357   -0.000000102    0.000000926
     51        1           0.000000413   -0.000000328    0.000001192
     52        1           0.000000318   -0.000000408    0.000001022
     53        1           0.000000267   -0.000000442    0.000000567
     54        1           0.000000088    0.000000227   -0.000000112
     55        1          -0.000000032    0.000000464   -0.000000505
     56        1          -0.000000221    0.000000395   -0.000000819
     57        1          -0.000000413    0.000000070   -0.000000508
     58        1          -0.000000326   -0.000000234   -0.000000421
     59        1          -0.000000234   -0.000000360   -0.000000414
     60        1          -0.000000455   -0.000000807   -0.000000440
     61        1          -0.000000495   -0.000001165   -0.000000250
     62        1          -0.000000335   -0.000001125    0.000000076
     63        1          -0.000000157   -0.000000746    0.000000155
     64        1           0.000000347    0.000000107    0.000000449
     65        1           0.000000332    0.000000193    0.000000533
     66        1           0.000000263   -0.000000151    0.000000676
     67        1           0.000000069   -0.000000509    0.000000569
     68        1          -0.000000102   -0.000000550    0.000000256
     69        6          -0.000000417    0.000000338   -0.000001104
     70        6           0.000000375   -0.000000068   -0.000000278
     71        6          -0.000000337    0.000000329   -0.000000038
     72        6           0.000000011    0.000001341    0.000000329
     73        1           0.000000004    0.000000690   -0.000000590
     74        6           0.000000503   -0.000000413   -0.000000466
     75        1          -0.000000368   -0.000000095   -0.000000547
     76        6          -0.000000807    0.000000051   -0.000001043
     77        1          -0.000000011    0.000000542   -0.000000399
     78        1          -0.000000300   -0.000000207   -0.000000393
     79        1          -0.000000106    0.000000189   -0.000000108
     80        6          -0.000000144   -0.000000001   -0.000000360
     81        1          -0.000000059    0.000000376   -0.000000326
     82        1          -0.000000129    0.000000114   -0.000000338
     83        1           0.000000177    0.000000224   -0.000000342
 -------------------------------------------------------------------
 Cartesian Forces:  Max     0.000001341 RMS     0.000000437
 FormGI is forming the generalized inverse of G from B-inverse, IUseBI=4.

 ----------------------------------------------------------------------

 Electric dipole moment (input orientation):
 (Debye = 10**-18 statcoulomb cm , SI units = C m)
                  (au)            (Debye)         (10**-30 SI)
   Tot        0.289570D+01      0.736014D+01      0.245508D+02
   x          0.216611D+01      0.550571D+01      0.183651D+02
   y          0.562852D+00      0.143063D+01      0.477205D+01
   z          0.183746D+01      0.467035D+01      0.155786D+02

 Dipole polarizability, Alpha (input orientation).
 (esu units = cm**3 , SI units = C**2 m**2 J**-1)
 Alpha(0;0):
               (au)            (10**-24 esu)      (10**-40 SI)
   iso        0.591045D+03      0.875838D+02      0.974502D+02
   aniso      0.140875D+03      0.208756D+02      0.232272D+02
   xx         0.660697D+03      0.979052D+02      0.108934D+03
   yx        -0.453236D+02     -0.671626D+01     -0.747285D+01
   yy         0.552773D+03      0.819125D+02      0.911400D+02
   zx         0.699013D+01      0.103583D+01      0.115252D+01
   zy         0.293568D+02      0.435023D+01      0.484028D+01
   zz         0.559665D+03      0.829338D+02      0.922763D+02

 ----------------------------------------------------------------------

 Dipole orientation:
     6         -1.77040245          3.92639401         -7.36387548
     6         -3.37409606          5.83431564         -8.21520157
     6         -5.56212496          6.40744791         -6.87583724
     6         -6.13894212          5.07236908         -4.67780567
     6         -4.53584618          3.17511660         -3.82714587
     6         -2.34006897          2.58655942         -5.17138513
     6         -0.57892453          0.50003127         -4.27853989
     8         -3.49136334         -6.02083739         -5.36907231
     8         -1.58344395         -3.01826357         -8.54253590
    16         -3.13291396         -3.44231991         -6.29544126
     7         -1.98754927         -1.86929456         -3.80199393
     6         -0.95422818          6.65299254          2.30794108
     6         -1.32832365          8.98672577          3.46869407
     6         -0.00589976          9.60600138          5.65558900
     6          1.69642220          7.87660383          6.68244642
     6          2.06297798          5.54232922          5.53448130
     8          1.03735155          0.41412494          3.99649753
     6          0.73450834          4.91512254          3.34190735
     6          1.24438562          2.44369116          1.99624614
     8         -0.58587068          1.93674095          0.16619266
     6          0.78736559          1.18769164         -1.91500146
     7          3.17839069          1.28881612         -1.57544095
     6          4.05683948         -3.36640063          1.48290961
     7          3.64089847          2.12866482          0.84754732
     6          2.39584389         -3.48843303          6.57232838
     6          6.40676646          0.01751704          5.47742412
    15          3.53251386         -1.32017165          4.14918492
     6          6.39770944         -3.61810081          0.29988046
     6          6.64783150         -5.22909747         -1.76261538
     6          4.57081236         -6.57542327         -2.65595854
     6          2.23339417         -6.33845541         -1.46657603
     6          1.97297235         -4.73772268          0.60449551
     6          3.49552704         -5.88381996          6.78921779
     6          2.72523011         -7.52562881          8.69022459
     6          0.85220102         -6.78872284         10.38767546
     6         -0.24793635         -4.40767633         10.18141735
     6          0.51999202         -2.75619230          8.28330941
     6          8.09163102          1.47787672          4.04477228
     6         10.29858029          2.39169556          5.13515234
     6         10.83337784          1.90708505          7.66637616
     6          9.15320728          0.49192071          9.11108514
     6          6.95803510         -0.46404958          8.02643305
     1         -0.07578510          3.46240646         -8.42744293
     1         -2.91619285          6.85908063         -9.93304197
     1         -6.82255050          7.88275003         -7.54400366
     1         -7.85369763          5.49895659         -3.63425060
     1          0.89105235          0.19662938         -5.70492887
     1         -0.92134604         -3.11695147         -2.79411387
     1         -1.97542100          6.17549722          0.59472386
     1         -2.65619649         10.32276846          2.65403126
     1         -0.29463716         11.42692790          6.55672709
     1          2.73976535          8.34585219          8.38626401
     1          3.39326471          4.20970231          6.34895440
     1          8.01898228         -2.55736503          0.96840062
     1          8.47148574         -5.42199863         -2.68010101
     1          4.77204222         -7.81861246         -4.27452862
     1          0.61203357         -7.39206055         -2.15523913
     1          0.15481091         -4.57226682          1.54660850
     1          4.95220927         -6.47723758          5.47018693
     1          3.58334444         -9.38222647          8.84108997
     1          0.24791873         -8.07373524         11.86835606
     1         -1.71196668         -3.83062362         11.49694145
     1         -0.34281358         -0.90503535          8.12204044
     1          7.59564376          1.94566708          2.11660604
     1         11.59186801          3.51141425          4.00392068
     1         12.55097085          2.64197660          8.51432394
     1          9.54721210          0.11755696         11.08838157
     1          5.68751824         -1.57801006          9.18230199
     6         -6.11235744         -2.00474825         -6.79964726
     6         -6.48379839         -0.50204693         -8.92109503
     6         -7.99809780         -2.31255078         -4.99128059
     6         -8.77903960          0.73690419         -9.21153616
     1         -4.98152416         -0.27472410        -10.29423271
     6        -10.27976968         -1.06081789         -5.31375326
     1         -7.67736369         -3.49465457         -3.34680359
     6        -10.69384767          0.49754014         -7.40963115
     1         -9.07451664          1.93406909        -10.85250220
     1        -11.75904264         -1.28390620         -3.90809902
     1         -5.00077105          2.10992701         -2.13841167
     6        -13.12522274          1.95046804         -7.68755495
     1        -13.70233922          2.08112168         -9.66832544
     1        -14.65927236          1.07580933         -6.61459248
     1        -12.88598053          3.88415608         -6.98193468

 Electric dipole moment (dipole orientation):
 (Debye = 10**-18 statcoulomb cm , SI units = C m)
                  (au)            (Debye)         (10**-30 SI)
   Tot        0.289570D+01      0.736014D+01      0.245508D+02
   x          0.000000D+00      0.000000D+00      0.000000D+00
   y          0.000000D+00      0.000000D+00      0.000000D+00
   z          0.289570D+01      0.736014D+01      0.245508D+02

 Dipole polarizability, Alpha (dipole orientation).
 (esu units = cm**3 , SI units = C**2 m**2 J**-1)
 Alpha(0;0):
               (au)            (10**-24 esu)      (10**-40 SI)
   iso        0.591045D+03      0.875838D+02      0.974502D+02
   aniso      0.140875D+03      0.208756D+02      0.232272D+02
   xx         0.605641D+03      0.897467D+02      0.998567D+02
   yx        -0.561622D+02     -0.832238D+01     -0.925990D+01
   yy         0.550858D+03      0.816287D+02      0.908242D+02
   zx         0.401246D+02      0.594586D+01      0.661566D+01
   zy        -0.246906D+02     -0.365877D+01     -0.407093D+01
   zz         0.616637D+03      0.913761D+02      0.101670D+03

 ----------------------------------------------------------------------

 This type of calculation cannot be archived.


 ...THOSE SCIENCES ARE VAIN AND FULL OF ERRORS WHICH 
 ARE NOT BORN FROM EXPERIMENT, THE MOTHER OF CERTAINTY...

                          -- LEONARDO DA VINCI, 1452-1519
 Job cpu time:       0 days  0 hours  0 minutes  2.7 seconds.
 Elapsed time:       0 days  0 hours  0 minutes  0.7 seconds.
 File lengths (MBytes):  RWF=     12 Int=      0 D2E=      0 Chk=     15 Scr=      1
 Normal termination of Gaussian 16 at Sat Apr  4 18:50:40 2020.
