 Entering Gaussian System, Link 0=g16
 Initial command:
 /apps/cent7/gaussian/g16-A.03/g16-haswell/g16/l1.exe "/scratch/brown/finej/0051_imine_mechanism/ts_631gd/acyclic_complete/new_logs_2/Gau-245107.inp" -scrdir="/scratch/brown/finej/0051_imine_mechanism/ts_631gd/acyclic_complete/new_logs_2/"
 Entering Link 1 = /apps/cent7/gaussian/g16-A.03/g16-haswell/g16/l1.exe PID=    245108.
  
 Copyright (c) 1988,1990,1992,1993,1995,1998,2003,2009,2016,
            Gaussian, Inc.  All Rights Reserved.
  
 This is part of the Gaussian(R) 16 program.  It is based on
 the Gaussian(R) 09 system (copyright 2009, Gaussian, Inc.),
 the Gaussian(R) 03 system (copyright 2003, Gaussian, Inc.),
 the Gaussian(R) 98 system (copyright 1998, Gaussian, Inc.),
 the Gaussian(R) 94 system (copyright 1995, Gaussian, Inc.),
 the Gaussian 92(TM) system (copyright 1992, Gaussian, Inc.),
 the Gaussian 90(TM) system (copyright 1990, Gaussian, Inc.),
 the Gaussian 88(TM) system (copyright 1988, Gaussian, Inc.),
 the Gaussian 86(TM) system (copyright 1986, Carnegie Mellon
 University), and the Gaussian 82(TM) system (copyright 1983,
 Carnegie Mellon University). Gaussian is a federally registered
 trademark of Gaussian, Inc.
  
 This software contains proprietary and confidential information,
 including trade secrets, belonging to Gaussian, Inc.
  
 This software is provided under written license and may be
 used, copied, transmitted, or stored only in accord with that
 written license.
  
 The following legend is applicable only to US Government
 contracts under FAR:
  
                    RESTRICTED RIGHTS LEGEND
  
 Use, reproduction and disclosure by the US Government is
 subject to restrictions as set forth in subparagraphs (a)
 and (c) of the Commercial Computer Software - Restricted
 Rights clause in FAR 52.227-19.
  
 Gaussian, Inc.
 340 Quinnipiac St., Bldg. 40, Wallingford CT 06492
  
  
 ---------------------------------------------------------------
 Warning -- This program may not be used in any manner that
 competes with the business of Gaussian, Inc. or will provide
 assistance to any competitor of Gaussian, Inc.  The licensee
 of this program is prohibited from giving any competitor of
 Gaussian, Inc. access to this program.  By using this program,
 the user acknowledges that Gaussian, Inc. is engaged in the
 business of creating and licensing software in the field of
 computational chemistry and represents and warrants to the
 licensee that it is not a competitor of Gaussian, Inc. and that
 it will not use this program in any manner prohibited above.
 ---------------------------------------------------------------
  

 Cite this work as:
 Gaussian 16, Revision A.03,
 M. J. Frisch, G. W. Trucks, H. B. Schlegel, G. E. Scuseria, 
 M. A. Robb, J. R. Cheeseman, G. Scalmani, V. Barone, 
 G. A. Petersson, H. Nakatsuji, X. Li, M. Caricato, A. V. Marenich, 
 J. Bloino, B. G. Janesko, R. Gomperts, B. Mennucci, H. P. Hratchian, 
 J. V. Ortiz, A. F. Izmaylov, J. L. Sonnenberg, D. Williams-Young, 
 F. Ding, F. Lipparini, F. Egidi, J. Goings, B. Peng, A. Petrone, 
 T. Henderson, D. Ranasinghe, V. G. Zakrzewski, J. Gao, N. Rega, 
 G. Zheng, W. Liang, M. Hada, M. Ehara, K. Toyota, R. Fukuda, 
 J. Hasegawa, M. Ishida, T. Nakajima, Y. Honda, O. Kitao, H. Nakai, 
 T. Vreven, K. Throssell, J. A. Montgomery, Jr., J. E. Peralta, 
 F. Ogliaro, M. J. Bearpark, J. J. Heyd, E. N. Brothers, K. N. Kudin, 
 V. N. Staroverov, T. A. Keith, R. Kobayashi, J. Normand, 
 K. Raghavachari, A. P. Rendell, J. C. Burant, S. S. Iyengar, 
 J. Tomasi, M. Cossi, J. M. Millam, M. Klene, C. Adamo, R. Cammi, 
 J. W. Ochterski, R. L. Martin, K. Morokuma, O. Farkas, 
 J. B. Foresman, and D. J. Fox, Gaussian, Inc., Wallingford CT, 2016.
 
 ******************************************
 Gaussian 16:  ES64L-G16RevA.03 25-Dec-2016
                 4-Apr-2020 
 ******************************************
 %nprocshared=4
 Will use up to    4 processors via shared memory.
 %mem=1GB
 %oldchk=chk/acyclic_2_intr_3.chk
 Copying data from "chk/acyclic_2_intr_3.chk" to current chk file "/scratch/brown/finej/0051_imine_mechanism/ts_631gd/acyclic_complete/new_logs_2/Gau-245108.chk"
 IOpt=  2 FromEx=T IUOpen= 4 IOptOp= 5 NList=   0 IFRang= 0 IUIn= 4 IUOut= 2.
 ----------------------------------------------------------------------
 # freq=readfc wb97xd/6-31g(d) scrf=solvent=dichloromethane geom=check 
 temperature=263.15
 ----------------------------------------------------------------------
 1/29=2,38=1,112=263150,172=1/1;
 2/12=2,40=1/2;
 7/8=1,25=11/16;
 99/5=2/99;
 ----------------------------------------------------------
 Interaction between intermediate 1 and the carboxylic acid
 ----------------------------------------------------------
 Structure from the checkpoint file:  "/scratch/brown/finej/0051_imine_mechanism/ts_631gd/acyclic_complete/new_logs_2/Gau-245108.chk"
 Charge =  0 Multiplicity = 1
 Redundant internal coordinates found in file.  (old form).
 C,0,-2.8634312228,-2.0970837855,-2.6714154485
 C,0,-3.9289478403,-1.8721725125,-3.5388871093
 C,0,-4.6361678038,-0.6750457609,-3.4715060063
 C,0,-4.2691756246,0.296840865,-2.542570989
 C,0,-3.1968830786,0.0811420711,-1.6843366121
 C,0,-2.4964873619,-1.1228839422,-1.7442121973
 C,0,-1.3622402984,-1.4302122017,-0.7699860954
 N,0,-1.4859347033,-0.9353833707,0.5954795131
 C,0,-0.8706099563,4.3351478023,1.6194646727
 C,0,-0.4651416637,5.6398560147,1.8871673399
 C,0,0.1762397611,6.3871783937,0.9001135427
 C,0,0.4051197692,5.8260742231,-0.3563357131
 C,0,0.0060844783,4.5181421265,-0.6161344586
 O,0,-1.7080038175,1.7355733891,0.9757457184
 C,0,-0.6282248599,3.7614910648,0.3708161673
 C,0,-0.9932006315,2.3130247856,0.0999750292
 O,0,-0.556511476,1.7906139794,-0.9473871771
 C,0,-0.057922233,-0.9354738643,-1.2476651745
 N,0,1.0210293046,-0.6158133735,-1.4814916952
 C,0,3.1658933747,0.8127932846,0.7558236871
 N,0,2.2299200311,-0.2388375944,-1.7624275176
 C,0,4.8995721463,-0.4764173828,-1.2629055546
 C,0,2.9422231407,-2.0470510668,0.3248236833
 P,0,3.2748971468,-0.4767092522,-0.4973261462
 C,0,3.7406852346,0.6042348308,2.0171140919
 C,0,3.7152726355,1.6234172492,2.960367254
 C,0,3.1134635258,2.8421313136,2.6494264579
 C,0,2.5259043017,3.0419433827,1.4037914539
 C,0,2.5447059637,2.0270367081,0.4503940564
 C,0,6.0080565153,0.0363338318,-0.5821856448
 C,0,7.265757575,-0.0243531106,-1.17230947
 C,0,7.4174824814,-0.5919742567,-2.4351114652
 C,0,6.3122736818,-1.0994187679,-3.1153389292
 C,0,5.0509418649,-1.0447243762,-2.533495966
 C,0,1.8240893181,-2.1327392281,1.1675237513
 C,0,1.4494058411,-3.3636250789,1.6933989207
 C,0,2.1985363406,-4.5015490092,1.4002606361
 C,0,3.3188362412,-4.4149743886,0.5763530061
 C,0,3.6886690937,-3.1914936592,0.0276493063
 H,0,-2.3250709576,-3.0410555691,-2.7095049816
 H,0,-4.212670417,-2.6368358006,-4.2554518947
 H,0,-5.4762157616,-0.5013950899,-4.1374959222
 H,0,-4.8250013663,1.2273790451,-2.479839199
 H,0,-1.2521249001,-2.5196083895,-0.7052411536
 H,0,-1.567458057,0.116882489,0.7107643278
 H,0,-1.3657640188,3.7374728545,2.3775190681
 H,0,-0.6461528603,6.0746696161,2.8661967069
 H,0,0.4944626306,7.404864634,1.1080882629
 H,0,0.8994517402,6.4075232627,-1.1295419479
 H,0,0.1918785933,4.057769683,-1.5811951111
 H,0,4.1975659133,-0.3499724036,2.2647295152
 H,0,4.157859345,1.4646278616,3.9381735989
 H,0,3.0919359521,3.636863913,3.3885909532
 H,0,2.0430476605,3.9853634421,1.1730770657
 H,0,2.0473472232,2.1648619273,-0.5050522468
 H,0,5.894486127,0.4914890127,0.3964118138
 H,0,8.1255717962,0.3775988553,-0.6468686209
 H,0,8.4004019149,-0.6348914552,-2.8935088626
 H,0,6.4307691356,-1.5353341725,-4.1017706769
 H,0,4.1858284414,-1.4288607683,-3.0637758686
 H,0,1.2392836181,-1.2499567916,1.4113635952
 H,0,0.5698907467,-3.430551767,2.3248668622
 H,0,1.907815698,-5.4608834444,1.8166088858
 H,0,3.9035456696,-5.3019088032,0.3554925654
 H,0,4.5545994135,-3.1297714117,-0.6243632465
 H,0,-2.9243206976,0.8277733244,-0.9470170162
 S,0,-2.4827497748,-1.7578279984,1.6242764255
 O,0,-2.2813277896,-3.184686841,1.3776889052
 O,0,-2.2326875802,-1.2018801737,2.94724834
 C,0,-4.1401429628,-1.339146234,1.1441919302
 C,0,-4.8823890974,-2.2340334087,0.3810334329
 C,0,-4.6132933814,-0.058853821,1.4206328715
 C,0,-6.1160706769,-1.8340416414,-0.1155901276
 H,0,-4.490618938,-3.2226538685,0.1691927492
 C,0,-5.8492713818,0.3226347629,0.9157266507
 H,0,-4.0104079788,0.6388813399,1.992339405
 C,0,-6.6101823637,-0.5503301093,0.1317205847
 H,0,-6.6974734296,-2.5257729695,-0.7186781878
 H,0,-6.2224852406,1.3219364959,1.1214643655
 C,0,-7.914497409,-0.1048135275,-0.4753325133
 H,0,-8.3572419216,0.7226387187,0.0859508233
 H,0,-7.7526242842,0.2393336346,-1.5039999406
 H,0,-8.6381684666,-0.9244187408,-0.513690107
 Recover connectivity data from disk.
                           ----------------------------
                           !    Current Parameters    !
                           ! (Angstroms and Degrees)  !
 --------------------------                            --------------------------
 ! Name  Definition              Value          Derivative Info.                !
 --------------------------------------------------------------------------------
 ! R1    R(1,2)                  1.3923         estimate D2E/DX2                !
 ! R2    R(1,6)                  1.3941         estimate D2E/DX2                !
 ! R3    R(1,40)                 1.0874         estimate D2E/DX2                !
 ! R4    R(2,3)                  1.3921         estimate D2E/DX2                !
 ! R5    R(2,41)                 1.0857         estimate D2E/DX2                !
 ! R6    R(3,4)                  1.3936         estimate D2E/DX2                !
 ! R7    R(3,42)                 1.086          estimate D2E/DX2                !
 ! R8    R(4,5)                  1.3903         estimate D2E/DX2                !
 ! R9    R(4,43)                 1.0857         estimate D2E/DX2                !
 ! R10   R(5,6)                  1.3942         estimate D2E/DX2                !
 ! R11   R(5,66)                 1.0842         estimate D2E/DX2                !
 ! R12   R(6,7)                  1.5265         estimate D2E/DX2                !
 ! R13   R(7,8)                  1.4576         estimate D2E/DX2                !
 ! R14   R(7,18)                 1.4745         estimate D2E/DX2                !
 ! R15   R(7,44)                 1.0969         estimate D2E/DX2                !
 ! R16   R(8,45)                 1.0617         estimate D2E/DX2                !
 ! R17   R(8,67)                 1.6518         estimate D2E/DX2                !
 ! R18   R(9,10)                 1.3922         estimate D2E/DX2                !
 ! R19   R(9,15)                 1.3953         estimate D2E/DX2                !
 ! R20   R(9,46)                 1.0849         estimate D2E/DX2                !
 ! R21   R(10,11)                1.3943         estimate D2E/DX2                !
 ! R22   R(10,47)                1.0864         estimate D2E/DX2                !
 ! R23   R(11,12)                1.395          estimate D2E/DX2                !
 ! R24   R(11,48)                1.0864         estimate D2E/DX2                !
 ! R25   R(12,13)                1.3919         estimate D2E/DX2                !
 ! R26   R(12,49)                1.0864         estimate D2E/DX2                !
 ! R27   R(13,15)                1.396          estimate D2E/DX2                !
 ! R28   R(13,50)                1.0853         estimate D2E/DX2                !
 ! R29   R(14,16)                1.2694         estimate D2E/DX2                !
 ! R30   R(14,45)                1.6462         estimate D2E/DX2                !
 ! R31   R(15,16)                1.5181         estimate D2E/DX2                !
 ! R32   R(16,17)                1.2492         estimate D2E/DX2                !
 ! R33   R(18,19)                1.1493         estimate D2E/DX2                !
 ! R34   R(19,21)                1.2971         estimate D2E/DX2                !
 ! R35   R(20,24)                1.8014         estimate D2E/DX2                !
 ! R36   R(20,25)                1.4017         estimate D2E/DX2                !
 ! R37   R(20,29)                1.3977         estimate D2E/DX2                !
 ! R38   R(21,24)                1.658          estimate D2E/DX2                !
 ! R39   R(22,24)                1.796          estimate D2E/DX2                !
 ! R40   R(22,30)                1.3982         estimate D2E/DX2                !
 ! R41   R(22,34)                1.4001         estimate D2E/DX2                !
 ! R42   R(23,24)                1.8035         estimate D2E/DX2                !
 ! R43   R(23,35)                1.4028         estimate D2E/DX2                !
 ! R44   R(23,39)                1.3983         estimate D2E/DX2                !
 ! R45   R(25,26)                1.3889         estimate D2E/DX2                !
 ! R46   R(25,51)                1.0865         estimate D2E/DX2                !
 ! R47   R(26,27)                1.3943         estimate D2E/DX2                !
 ! R48   R(26,52)                1.085          estimate D2E/DX2                !
 ! R49   R(27,28)                1.3917         estimate D2E/DX2                !
 ! R50   R(27,53)                1.0856         estimate D2E/DX2                !
 ! R51   R(28,29)                1.3926         estimate D2E/DX2                !
 ! R52   R(28,54)                1.0846         estimate D2E/DX2                !
 ! R53   R(29,55)                1.0859         estimate D2E/DX2                !
 ! R54   R(30,31)                1.3906         estimate D2E/DX2                !
 ! R55   R(30,56)                1.0852         estimate D2E/DX2                !
 ! R56   R(31,32)                1.3928         estimate D2E/DX2                !
 ! R57   R(31,57)                1.0849         estimate D2E/DX2                !
 ! R58   R(32,33)                1.3934         estimate D2E/DX2                !
 ! R59   R(32,58)                1.0854         estimate D2E/DX2                !
 ! R60   R(33,34)                1.3901         estimate D2E/DX2                !
 ! R61   R(33,59)                1.0849         estimate D2E/DX2                !
 ! R62   R(34,60)                1.085          estimate D2E/DX2                !
 ! R63   R(35,36)                1.39           estimate D2E/DX2                !
 ! R64   R(35,61)                1.0866         estimate D2E/DX2                !
 ! R65   R(36,37)                1.3936         estimate D2E/DX2                !
 ! R66   R(36,62)                1.0848         estimate D2E/DX2                !
 ! R67   R(37,38)                1.3933         estimate D2E/DX2                !
 ! R68   R(37,63)                1.0854         estimate D2E/DX2                !
 ! R69   R(38,39)                1.391          estimate D2E/DX2                !
 ! R70   R(38,64)                1.085          estimate D2E/DX2                !
 ! R71   R(39,65)                1.0857         estimate D2E/DX2                !
 ! R72   R(67,68)                1.462          estimate D2E/DX2                !
 ! R73   R(67,69)                1.4567         estimate D2E/DX2                !
 ! R74   R(67,70)                1.7756         estimate D2E/DX2                !
 ! R75   R(70,71)                1.3907         estimate D2E/DX2                !
 ! R76   R(70,72)                1.3926         estimate D2E/DX2                !
 ! R77   R(71,73)                1.3887         estimate D2E/DX2                !
 ! R78   R(71,74)                1.0843         estimate D2E/DX2                !
 ! R79   R(72,75)                1.3886         estimate D2E/DX2                !
 ! R80   R(72,76)                1.085          estimate D2E/DX2                !
 ! R81   R(73,77)                1.3976         estimate D2E/DX2                !
 ! R82   R(73,78)                1.0864         estimate D2E/DX2                !
 ! R83   R(75,77)                1.3985         estimate D2E/DX2                !
 ! R84   R(75,79)                1.0864         estimate D2E/DX2                !
 ! R85   R(77,80)                1.5061         estimate D2E/DX2                !
 ! R86   R(80,81)                1.0935         estimate D2E/DX2                !
 ! R87   R(80,82)                1.0967         estimate D2E/DX2                !
 ! R88   R(80,83)                1.094          estimate D2E/DX2                !
 ! A1    A(2,1,6)              120.1959         estimate D2E/DX2                !
 ! A2    A(2,1,40)             119.823          estimate D2E/DX2                !
 ! A3    A(6,1,40)             119.9763         estimate D2E/DX2                !
 ! A4    A(1,2,3)              119.8395         estimate D2E/DX2                !
 ! A5    A(1,2,41)             119.832          estimate D2E/DX2                !
 ! A6    A(3,2,41)             120.3233         estimate D2E/DX2                !
 ! A7    A(2,3,4)              119.8816         estimate D2E/DX2                !
 ! A8    A(2,3,42)             120.0537         estimate D2E/DX2                !
 ! A9    A(4,3,42)             120.0637         estimate D2E/DX2                !
 ! A10   A(3,4,5)              120.4232         estimate D2E/DX2                !
 ! A11   A(3,4,43)             120.0933         estimate D2E/DX2                !
 ! A12   A(5,4,43)             119.4822         estimate D2E/DX2                !
 ! A13   A(4,5,6)              119.6651         estimate D2E/DX2                !
 ! A14   A(4,5,66)             120.4562         estimate D2E/DX2                !
 ! A15   A(6,5,66)             119.8444         estimate D2E/DX2                !
 ! A16   A(1,6,5)              119.9886         estimate D2E/DX2                !
 ! A17   A(1,6,7)              118.6448         estimate D2E/DX2                !
 ! A18   A(5,6,7)              121.315          estimate D2E/DX2                !
 ! A19   A(6,7,8)              117.8055         estimate D2E/DX2                !
 ! A20   A(6,7,18)             112.5183         estimate D2E/DX2                !
 ! A21   A(6,7,44)             108.1939         estimate D2E/DX2                !
 ! A22   A(8,7,18)             105.3454         estimate D2E/DX2                !
 ! A23   A(8,7,44)             106.8814         estimate D2E/DX2                !
 ! A24   A(18,7,44)            105.2815         estimate D2E/DX2                !
 ! A25   A(7,8,45)             116.4041         estimate D2E/DX2                !
 ! A26   A(7,8,67)             117.7514         estimate D2E/DX2                !
 ! A27   A(45,8,67)            112.3036         estimate D2E/DX2                !
 ! A28   A(10,9,15)            120.4479         estimate D2E/DX2                !
 ! A29   A(10,9,46)            120.9859         estimate D2E/DX2                !
 ! A30   A(15,9,46)            118.559          estimate D2E/DX2                !
 ! A31   A(9,10,11)            120.0083         estimate D2E/DX2                !
 ! A32   A(9,10,47)            119.9875         estimate D2E/DX2                !
 ! A33   A(11,10,47)           120.0039         estimate D2E/DX2                !
 ! A34   A(10,11,12)           119.8352         estimate D2E/DX2                !
 ! A35   A(10,11,48)           120.0866         estimate D2E/DX2                !
 ! A36   A(12,11,48)           120.0779         estimate D2E/DX2                !
 ! A37   A(11,12,13)           119.9372         estimate D2E/DX2                !
 ! A38   A(11,12,49)           120.0278         estimate D2E/DX2                !
 ! A39   A(13,12,49)           120.0341         estimate D2E/DX2                !
 ! A40   A(12,13,15)           120.5041         estimate D2E/DX2                !
 ! A41   A(12,13,50)           121.0313         estimate D2E/DX2                !
 ! A42   A(15,13,50)           118.4588         estimate D2E/DX2                !
 ! A43   A(16,14,45)           106.7481         estimate D2E/DX2                !
 ! A44   A(9,15,13)            119.2579         estimate D2E/DX2                !
 ! A45   A(9,15,16)            120.6744         estimate D2E/DX2                !
 ! A46   A(13,15,16)           120.0162         estimate D2E/DX2                !
 ! A47   A(14,16,15)           116.5085         estimate D2E/DX2                !
 ! A48   A(14,16,17)           125.8054         estimate D2E/DX2                !
 ! A49   A(15,16,17)           117.6806         estimate D2E/DX2                !
 ! A50   A(24,20,25)           119.6465         estimate D2E/DX2                !
 ! A51   A(24,20,29)           119.7853         estimate D2E/DX2                !
 ! A52   A(25,20,29)           120.5405         estimate D2E/DX2                !
 ! A53   A(19,21,24)           112.3609         estimate D2E/DX2                !
 ! A54   A(24,22,30)           120.6426         estimate D2E/DX2                !
 ! A55   A(24,22,34)           118.9842         estimate D2E/DX2                !
 ! A56   A(30,22,34)           120.3283         estimate D2E/DX2                !
 ! A57   A(24,23,35)           118.2997         estimate D2E/DX2                !
 ! A58   A(24,23,39)           121.1509         estimate D2E/DX2                !
 ! A59   A(35,23,39)           120.2113         estimate D2E/DX2                !
 ! A60   A(20,24,21)           112.9519         estimate D2E/DX2                !
 ! A61   A(20,24,22)           110.5578         estimate D2E/DX2                !
 ! A62   A(20,24,23)           107.1578         estimate D2E/DX2                !
 ! A63   A(21,24,22)           104.1733         estimate D2E/DX2                !
 ! A64   A(21,24,23)           110.8852         estimate D2E/DX2                !
 ! A65   A(22,24,23)           111.1816         estimate D2E/DX2                !
 ! A66   A(20,25,26)           119.6313         estimate D2E/DX2                !
 ! A67   A(20,25,51)           120.5419         estimate D2E/DX2                !
 ! A68   A(26,25,51)           119.8248         estimate D2E/DX2                !
 ! A69   A(25,26,27)           119.8563         estimate D2E/DX2                !
 ! A70   A(25,26,52)           119.8137         estimate D2E/DX2                !
 ! A71   A(27,26,52)           120.3286         estimate D2E/DX2                !
 ! A72   A(26,27,28)           120.4858         estimate D2E/DX2                !
 ! A73   A(26,27,53)           119.7759         estimate D2E/DX2                !
 ! A74   A(28,27,53)           119.7339         estimate D2E/DX2                !
 ! A75   A(27,28,29)           120.1612         estimate D2E/DX2                !
 ! A76   A(27,28,54)           120.2139         estimate D2E/DX2                !
 ! A77   A(29,28,54)           119.6226         estimate D2E/DX2                !
 ! A78   A(20,29,28)           119.3093         estimate D2E/DX2                !
 ! A79   A(20,29,55)           120.4032         estimate D2E/DX2                !
 ! A80   A(28,29,55)           120.2433         estimate D2E/DX2                !
 ! A81   A(22,30,31)           119.6311         estimate D2E/DX2                !
 ! A82   A(22,30,56)           120.6538         estimate D2E/DX2                !
 ! A83   A(31,30,56)           119.7111         estimate D2E/DX2                !
 ! A84   A(30,31,32)           120.071          estimate D2E/DX2                !
 ! A85   A(30,31,57)           119.6768         estimate D2E/DX2                !
 ! A86   A(32,31,57)           120.2512         estimate D2E/DX2                !
 ! A87   A(31,32,33)           120.3054         estimate D2E/DX2                !
 ! A88   A(31,32,58)           119.8463         estimate D2E/DX2                !
 ! A89   A(33,32,58)           119.8476         estimate D2E/DX2                !
 ! A90   A(32,33,34)           120.0667         estimate D2E/DX2                !
 ! A91   A(32,33,59)           120.2335         estimate D2E/DX2                !
 ! A92   A(34,33,59)           119.6994         estimate D2E/DX2                !
 ! A93   A(22,34,33)           119.5972         estimate D2E/DX2                !
 ! A94   A(22,34,60)           120.069          estimate D2E/DX2                !
 ! A95   A(33,34,60)           120.3299         estimate D2E/DX2                !
 ! A96   A(23,35,36)           119.7521         estimate D2E/DX2                !
 ! A97   A(23,35,61)           120.9419         estimate D2E/DX2                !
 ! A98   A(36,35,61)           119.3046         estimate D2E/DX2                !
 ! A99   A(35,36,37)           119.9083         estimate D2E/DX2                !
 ! A100  A(35,36,62)           119.5656         estimate D2E/DX2                !
 ! A101  A(37,36,62)           120.5249         estimate D2E/DX2                !
 ! A102  A(36,37,38)           120.3894         estimate D2E/DX2                !
 ! A103  A(36,37,63)           119.8034         estimate D2E/DX2                !
 ! A104  A(38,37,63)           119.8071         estimate D2E/DX2                !
 ! A105  A(37,38,39)           120.1124         estimate D2E/DX2                !
 ! A106  A(37,38,64)           120.1891         estimate D2E/DX2                !
 ! A107  A(39,38,64)           119.6977         estimate D2E/DX2                !
 ! A108  A(23,39,38)           119.6128         estimate D2E/DX2                !
 ! A109  A(23,39,65)           120.4551         estimate D2E/DX2                !
 ! A110  A(38,39,65)           119.9317         estimate D2E/DX2                !
 ! A111  A(8,67,68)            107.3229         estimate D2E/DX2                !
 ! A112  A(8,67,69)            105.7858         estimate D2E/DX2                !
 ! A113  A(8,67,70)            106.1105         estimate D2E/DX2                !
 ! A114  A(68,67,69)           120.1348         estimate D2E/DX2                !
 ! A115  A(68,67,70)           108.2484         estimate D2E/DX2                !
 ! A116  A(69,67,70)           108.4098         estimate D2E/DX2                !
 ! A117  A(67,70,71)           119.6578         estimate D2E/DX2                !
 ! A118  A(67,70,72)           118.7011         estimate D2E/DX2                !
 ! A119  A(71,70,72)           121.2753         estimate D2E/DX2                !
 ! A120  A(70,71,73)           119.0135         estimate D2E/DX2                !
 ! A121  A(70,71,74)           120.0695         estimate D2E/DX2                !
 ! A122  A(73,71,74)           120.9111         estimate D2E/DX2                !
 ! A123  A(70,72,75)           118.8692         estimate D2E/DX2                !
 ! A124  A(70,72,76)           120.4657         estimate D2E/DX2                !
 ! A125  A(75,72,76)           120.6327         estimate D2E/DX2                !
 ! A126  A(71,73,77)           121.0209         estimate D2E/DX2                !
 ! A127  A(71,73,78)           119.3763         estimate D2E/DX2                !
 ! A128  A(77,73,78)           119.5956         estimate D2E/DX2                !
 ! A129  A(72,75,77)           121.1088         estimate D2E/DX2                !
 ! A130  A(72,75,79)           119.3171         estimate D2E/DX2                !
 ! A131  A(77,75,79)           119.5671         estimate D2E/DX2                !
 ! A132  A(73,77,75)           118.699          estimate D2E/DX2                !
 ! A133  A(73,77,80)           120.4359         estimate D2E/DX2                !
 ! A134  A(75,77,80)           120.8324         estimate D2E/DX2                !
 ! A135  A(77,80,81)           111.5677         estimate D2E/DX2                !
 ! A136  A(77,80,82)           110.0635         estimate D2E/DX2                !
 ! A137  A(77,80,83)           111.4309         estimate D2E/DX2                !
 ! A138  A(81,80,82)           107.683          estimate D2E/DX2                !
 ! A139  A(81,80,83)           108.4854         estimate D2E/DX2                !
 ! A140  A(82,80,83)           107.4473         estimate D2E/DX2                !
 ! A141  L(7,18,19,9,-1)       180.0099         estimate D2E/DX2                !
 ! A142  L(18,19,21,9,-1)      179.679          estimate D2E/DX2                !
 ! A143  L(8,45,14,3,-1)       182.0822         estimate D2E/DX2                !
 ! A144  L(7,18,19,9,-2)       171.7371         estimate D2E/DX2                !
 ! A145  L(18,19,21,9,-2)      181.0766         estimate D2E/DX2                !
 ! A146  L(8,45,14,3,-2)       177.6867         estimate D2E/DX2                !
 ! D1    D(6,1,2,3)             -0.5378         estimate D2E/DX2                !
 ! D2    D(6,1,2,41)          -179.7086         estimate D2E/DX2                !
 ! D3    D(40,1,2,3)           178.6583         estimate D2E/DX2                !
 ! D4    D(40,1,2,41)           -0.5126         estimate D2E/DX2                !
 ! D5    D(2,1,6,5)             -0.0342         estimate D2E/DX2                !
 ! D6    D(2,1,6,7)            177.3884         estimate D2E/DX2                !
 ! D7    D(40,1,6,5)          -179.229          estimate D2E/DX2                !
 ! D8    D(40,1,6,7)            -1.8064         estimate D2E/DX2                !
 ! D9    D(1,2,3,4)              0.4384         estimate D2E/DX2                !
 ! D10   D(1,2,3,42)          -179.1834         estimate D2E/DX2                !
 ! D11   D(41,2,3,4)           179.6052         estimate D2E/DX2                !
 ! D12   D(41,2,3,42)           -0.0166         estimate D2E/DX2                !
 ! D13   D(2,3,4,5)              0.234          estimate D2E/DX2                !
 ! D14   D(2,3,4,43)          -179.3455         estimate D2E/DX2                !
 ! D15   D(42,3,4,5)           179.8558         estimate D2E/DX2                !
 ! D16   D(42,3,4,43)            0.2762         estimate D2E/DX2                !
 ! D17   D(3,4,5,6)             -0.8042         estimate D2E/DX2                !
 ! D18   D(3,4,5,66)          -178.6696         estimate D2E/DX2                !
 ! D19   D(43,4,5,6)           178.7778         estimate D2E/DX2                !
 ! D20   D(43,4,5,66)            0.9125         estimate D2E/DX2                !
 ! D21   D(4,5,6,1)              0.7029         estimate D2E/DX2                !
 ! D22   D(4,5,6,7)           -176.6495         estimate D2E/DX2                !
 ! D23   D(66,5,6,1)           178.5814         estimate D2E/DX2                !
 ! D24   D(66,5,6,7)             1.2291         estimate D2E/DX2                !
 ! D25   D(1,6,7,8)           -142.3157         estimate D2E/DX2                !
 ! D26   D(1,6,7,18)            94.8293         estimate D2E/DX2                !
 ! D27   D(1,6,7,44)           -21.0572         estimate D2E/DX2                !
 ! D28   D(5,6,7,8)             35.0713         estimate D2E/DX2                !
 ! D29   D(5,6,7,18)           -87.7837         estimate D2E/DX2                !
 ! D30   D(5,6,7,44)           156.3298         estimate D2E/DX2                !
 ! D31   D(6,7,8,45)           -60.1162         estimate D2E/DX2                !
 ! D32   D(6,7,8,67)            77.617          estimate D2E/DX2                !
 ! D33   D(18,7,8,45)           66.3037         estimate D2E/DX2                !
 ! D34   D(18,7,8,67)         -155.9631         estimate D2E/DX2                !
 ! D35   D(44,7,8,45)          177.951          estimate D2E/DX2                !
 ! D36   D(44,7,8,67)          -44.3158         estimate D2E/DX2                !
 ! D37   D(6,7,21,24)          172.2727         estimate D2E/DX2                !
 ! D38   D(8,7,21,24)           41.7724         estimate D2E/DX2                !
 ! D39   D(44,7,21,24)         -69.0321         estimate D2E/DX2                !
 ! D40   D(7,8,14,16)          -35.3007         estimate D2E/DX2                !
 ! D41   D(67,8,14,16)        -175.5643         estimate D2E/DX2                !
 ! D42   D(7,8,67,68)           40.7857         estimate D2E/DX2                !
 ! D43   D(7,8,67,69)          170.1817         estimate D2E/DX2                !
 ! D44   D(7,8,67,70)          -74.7779         estimate D2E/DX2                !
 ! D45   D(45,8,67,68)        -179.8414         estimate D2E/DX2                !
 ! D46   D(45,8,67,69)         -50.4454         estimate D2E/DX2                !
 ! D47   D(45,8,67,70)          64.595          estimate D2E/DX2                !
 ! D48   D(15,9,10,11)           0.6289         estimate D2E/DX2                !
 ! D49   D(15,9,10,47)        -179.2043         estimate D2E/DX2                !
 ! D50   D(46,9,10,11)         179.643          estimate D2E/DX2                !
 ! D51   D(46,9,10,47)          -0.1902         estimate D2E/DX2                !
 ! D52   D(10,9,15,13)          -1.0647         estimate D2E/DX2                !
 ! D53   D(10,9,15,16)         176.3256         estimate D2E/DX2                !
 ! D54   D(46,9,15,13)         179.8976         estimate D2E/DX2                !
 ! D55   D(46,9,15,16)          -2.7121         estimate D2E/DX2                !
 ! D56   D(9,10,11,12)           0.2603         estimate D2E/DX2                !
 ! D57   D(9,10,11,48)        -179.9108         estimate D2E/DX2                !
 ! D58   D(47,10,11,12)       -179.9065         estimate D2E/DX2                !
 ! D59   D(47,10,11,48)         -0.0777         estimate D2E/DX2                !
 ! D60   D(10,11,12,13)         -0.7013         estimate D2E/DX2                !
 ! D61   D(10,11,12,49)        179.6468         estimate D2E/DX2                !
 ! D62   D(48,11,12,13)        179.4697         estimate D2E/DX2                !
 ! D63   D(48,11,12,49)         -0.1821         estimate D2E/DX2                !
 ! D64   D(11,12,13,15)          0.2588         estimate D2E/DX2                !
 ! D65   D(11,12,13,50)       -178.8482         estimate D2E/DX2                !
 ! D66   D(49,12,13,15)        179.9106         estimate D2E/DX2                !
 ! D67   D(49,12,13,50)          0.8036         estimate D2E/DX2                !
 ! D68   D(12,13,15,9)           0.6206         estimate D2E/DX2                !
 ! D69   D(12,13,15,16)       -176.7872         estimate D2E/DX2                !
 ! D70   D(50,13,15,9)         179.7502         estimate D2E/DX2                !
 ! D71   D(50,13,15,16)          2.3424         estimate D2E/DX2                !
 ! D72   D(45,14,16,15)       -162.6091         estimate D2E/DX2                !
 ! D73   D(45,14,16,17)         16.5153         estimate D2E/DX2                !
 ! D74   D(9,15,16,14)          10.8581         estimate D2E/DX2                !
 ! D75   D(9,15,16,17)        -168.3401         estimate D2E/DX2                !
 ! D76   D(13,15,16,14)       -171.7714         estimate D2E/DX2                !
 ! D77   D(13,15,16,17)          9.0305         estimate D2E/DX2                !
 ! D78   D(25,20,24,21)        165.1315         estimate D2E/DX2                !
 ! D79   D(25,20,24,22)        -78.5849         estimate D2E/DX2                !
 ! D80   D(25,20,24,23)         42.7247         estimate D2E/DX2                !
 ! D81   D(29,20,24,21)        -16.77           estimate D2E/DX2                !
 ! D82   D(29,20,24,22)         99.5136         estimate D2E/DX2                !
 ! D83   D(29,20,24,23)       -139.1767         estimate D2E/DX2                !
 ! D84   D(24,20,25,26)        176.7852         estimate D2E/DX2                !
 ! D85   D(24,20,25,51)         -3.7389         estimate D2E/DX2                !
 ! D86   D(29,20,25,26)         -1.2987         estimate D2E/DX2                !
 ! D87   D(29,20,25,51)        178.1772         estimate D2E/DX2                !
 ! D88   D(24,20,29,28)       -176.7527         estimate D2E/DX2                !
 ! D89   D(24,20,29,55)          5.6622         estimate D2E/DX2                !
 ! D90   D(25,20,29,28)          1.3286         estimate D2E/DX2                !
 ! D91   D(25,20,29,55)       -176.2565         estimate D2E/DX2                !
 ! D92   D(19,21,24,20)        -80.0341         estimate D2E/DX2                !
 ! D93   D(19,21,24,22)        159.9486         estimate D2E/DX2                !
 ! D94   D(19,21,24,23)         40.2631         estimate D2E/DX2                !
 ! D95   D(30,22,24,20)         24.6465         estimate D2E/DX2                !
 ! D96   D(30,22,24,21)        146.2655         estimate D2E/DX2                !
 ! D97   D(30,22,24,23)        -94.2497         estimate D2E/DX2                !
 ! D98   D(34,22,24,20)       -157.7835         estimate D2E/DX2                !
 ! D99   D(34,22,24,21)        -36.1645         estimate D2E/DX2                !
 ! D100  D(34,22,24,23)         83.3203         estimate D2E/DX2                !
 ! D101  D(24,22,30,31)        177.3408         estimate D2E/DX2                !
 ! D102  D(24,22,30,56)         -3.3917         estimate D2E/DX2                !
 ! D103  D(34,22,30,31)         -0.1966         estimate D2E/DX2                !
 ! D104  D(34,22,30,56)        179.071          estimate D2E/DX2                !
 ! D105  D(24,22,34,33)       -177.4441         estimate D2E/DX2                !
 ! D106  D(24,22,34,60)          3.2724         estimate D2E/DX2                !
 ! D107  D(30,22,34,33)          0.1338         estimate D2E/DX2                !
 ! D108  D(30,22,34,60)       -179.1497         estimate D2E/DX2                !
 ! D109  D(35,23,24,20)         48.0607         estimate D2E/DX2                !
 ! D110  D(35,23,24,21)        -75.6244         estimate D2E/DX2                !
 ! D111  D(35,23,24,22)        168.9764         estimate D2E/DX2                !
 ! D112  D(39,23,24,20)       -138.6033         estimate D2E/DX2                !
 ! D113  D(39,23,24,21)         97.7115         estimate D2E/DX2                !
 ! D114  D(39,23,24,22)        -17.6877         estimate D2E/DX2                !
 ! D115  D(24,23,35,36)        172.5718         estimate D2E/DX2                !
 ! D116  D(24,23,35,61)         -6.9873         estimate D2E/DX2                !
 ! D117  D(39,23,35,36)         -0.8289         estimate D2E/DX2                !
 ! D118  D(39,23,35,61)        179.612          estimate D2E/DX2                !
 ! D119  D(24,23,39,38)       -173.4354         estimate D2E/DX2                !
 ! D120  D(24,23,39,65)          6.7703         estimate D2E/DX2                !
 ! D121  D(35,23,39,38)         -0.2258         estimate D2E/DX2                !
 ! D122  D(35,23,39,65)        179.9799         estimate D2E/DX2                !
 ! D123  D(20,25,26,27)          0.3271         estimate D2E/DX2                !
 ! D124  D(20,25,26,52)        179.899          estimate D2E/DX2                !
 ! D125  D(51,25,26,27)       -179.1527         estimate D2E/DX2                !
 ! D126  D(51,25,26,52)          0.4192         estimate D2E/DX2                !
 ! D127  D(25,26,27,28)          0.6028         estimate D2E/DX2                !
 ! D128  D(25,26,27,53)        179.8324         estimate D2E/DX2                !
 ! D129  D(52,26,27,28)       -178.9668         estimate D2E/DX2                !
 ! D130  D(52,26,27,53)          0.2627         estimate D2E/DX2                !
 ! D131  D(26,27,28,29)         -0.5702         estimate D2E/DX2                !
 ! D132  D(26,27,28,54)        178.8781         estimate D2E/DX2                !
 ! D133  D(53,27,28,29)       -179.8            estimate D2E/DX2                !
 ! D134  D(53,27,28,54)         -0.3518         estimate D2E/DX2                !
 ! D135  D(27,28,29,20)         -0.3936         estimate D2E/DX2                !
 ! D136  D(27,28,29,55)        177.1955         estimate D2E/DX2                !
 ! D137  D(54,28,29,20)       -179.8451         estimate D2E/DX2                !
 ! D138  D(54,28,29,55)         -2.256          estimate D2E/DX2                !
 ! D139  D(22,30,31,32)          0.0676         estimate D2E/DX2                !
 ! D140  D(22,30,31,57)        179.7045         estimate D2E/DX2                !
 ! D141  D(56,30,31,32)       -179.2069         estimate D2E/DX2                !
 ! D142  D(56,30,31,57)          0.43           estimate D2E/DX2                !
 ! D143  D(30,31,32,33)          0.1238         estimate D2E/DX2                !
 ! D144  D(30,31,32,58)        179.8261         estimate D2E/DX2                !
 ! D145  D(57,31,32,33)       -179.511          estimate D2E/DX2                !
 ! D146  D(57,31,32,58)          0.1913         estimate D2E/DX2                !
 ! D147  D(31,32,33,34)         -0.1871         estimate D2E/DX2                !
 ! D148  D(31,32,33,59)        179.5908         estimate D2E/DX2                !
 ! D149  D(58,32,33,34)       -179.8894         estimate D2E/DX2                !
 ! D150  D(58,32,33,59)         -0.1114         estimate D2E/DX2                !
 ! D151  D(32,33,34,22)          0.0579         estimate D2E/DX2                !
 ! D152  D(32,33,34,60)        179.3395         estimate D2E/DX2                !
 ! D153  D(59,33,34,22)       -179.7212         estimate D2E/DX2                !
 ! D154  D(59,33,34,60)         -0.4395         estimate D2E/DX2                !
 ! D155  D(23,35,36,37)          1.1056         estimate D2E/DX2                !
 ! D156  D(23,35,36,62)       -178.4907         estimate D2E/DX2                !
 ! D157  D(61,35,36,37)       -179.3281         estimate D2E/DX2                !
 ! D158  D(61,35,36,62)          1.0756         estimate D2E/DX2                !
 ! D159  D(35,36,37,38)         -0.3346         estimate D2E/DX2                !
 ! D160  D(35,36,37,63)        179.6377         estimate D2E/DX2                !
 ! D161  D(62,36,37,38)        179.2578         estimate D2E/DX2                !
 ! D162  D(62,36,37,63)         -0.7699         estimate D2E/DX2                !
 ! D163  D(36,37,38,39)         -0.728          estimate D2E/DX2                !
 ! D164  D(36,37,38,64)        179.5991         estimate D2E/DX2                !
 ! D165  D(63,37,38,39)        179.2996         estimate D2E/DX2                !
 ! D166  D(63,37,38,64)         -0.3733         estimate D2E/DX2                !
 ! D167  D(37,38,39,23)          1.0011         estimate D2E/DX2                !
 ! D168  D(37,38,39,65)       -179.2035         estimate D2E/DX2                !
 ! D169  D(64,38,39,23)       -179.3243         estimate D2E/DX2                !
 ! D170  D(64,38,39,65)          0.471          estimate D2E/DX2                !
 ! D171  D(8,67,70,71)         101.2851         estimate D2E/DX2                !
 ! D172  D(8,67,70,72)         -71.8618         estimate D2E/DX2                !
 ! D173  D(68,67,70,71)        -13.649          estimate D2E/DX2                !
 ! D174  D(68,67,70,72)        173.2042         estimate D2E/DX2                !
 ! D175  D(69,67,70,71)       -145.4757         estimate D2E/DX2                !
 ! D176  D(69,67,70,72)         41.3775         estimate D2E/DX2                !
 ! D177  D(67,70,71,73)       -172.7229         estimate D2E/DX2                !
 ! D178  D(67,70,71,74)          6.4055         estimate D2E/DX2                !
 ! D179  D(72,70,71,73)          0.243          estimate D2E/DX2                !
 ! D180  D(72,70,71,74)        179.3713         estimate D2E/DX2                !
 ! D181  D(67,70,72,75)        172.8109         estimate D2E/DX2                !
 ! D182  D(67,70,72,76)         -5.1299         estimate D2E/DX2                !
 ! D183  D(71,70,72,75)         -0.2206         estimate D2E/DX2                !
 ! D184  D(71,70,72,76)       -178.1614         estimate D2E/DX2                !
 ! D185  D(70,71,73,77)          0.5248         estimate D2E/DX2                !
 ! D186  D(70,71,73,78)        179.5441         estimate D2E/DX2                !
 ! D187  D(74,71,73,77)       -178.596          estimate D2E/DX2                !
 ! D188  D(74,71,73,78)          0.4233         estimate D2E/DX2                !
 ! D189  D(70,72,75,77)         -0.57           estimate D2E/DX2                !
 ! D190  D(70,72,75,79)       -179.6026         estimate D2E/DX2                !
 ! D191  D(76,72,75,77)        177.3673         estimate D2E/DX2                !
 ! D192  D(76,72,75,79)         -1.6654         estimate D2E/DX2                !
 ! D193  D(71,73,77,75)         -1.2847         estimate D2E/DX2                !
 ! D194  D(71,73,77,80)        176.6528         estimate D2E/DX2                !
 ! D195  D(78,73,77,75)        179.698          estimate D2E/DX2                !
 ! D196  D(78,73,77,80)         -2.3644         estimate D2E/DX2                !
 ! D197  D(72,75,77,73)          1.3086         estimate D2E/DX2                !
 ! D198  D(72,75,77,80)       -176.6204         estimate D2E/DX2                !
 ! D199  D(79,75,77,73)       -179.6611         estimate D2E/DX2                !
 ! D200  D(79,75,77,80)          2.4099         estimate D2E/DX2                !
 ! D201  D(73,77,80,81)        157.8799         estimate D2E/DX2                !
 ! D202  D(73,77,80,82)        -82.6423         estimate D2E/DX2                !
 ! D203  D(73,77,80,83)         36.4531         estimate D2E/DX2                !
 ! D204  D(75,77,80,81)        -24.227          estimate D2E/DX2                !
 ! D205  D(75,77,80,82)         95.2508         estimate D2E/DX2                !
 ! D206  D(75,77,80,83)       -145.6538         estimate D2E/DX2                !
 --------------------------------------------------------------------------------
 Stoichiometry    C40H34N3O4PS
 Framework group  C1[X(C40H34N3O4PS)]
 Deg. of freedom   243
 Full point group                 C1      NOp   1
 Largest Abelian subgroup         C1      NOp   1
 Largest concise Abelian subgroup C1      NOp   1
                         Standard orientation:                         
 ---------------------------------------------------------------------
 Center     Atomic      Atomic             Coordinates (Angstroms)
 Number     Number       Type             X           Y           Z
 ---------------------------------------------------------------------
      1          6           0        2.891419   -2.421095    2.298304
      2          6           0        3.931725   -2.316121    3.217630
      3          6           0        4.587326   -1.099688    3.385831
      4          6           0        4.193851    0.010023    2.640253
      5          6           0        3.146224   -0.087855    1.731516
      6          6           0        2.497864   -1.309426    1.554849
      7          6           0        1.394239   -1.478619    0.513951
      8          7           0        1.518825   -0.738464   -0.735569
      9          6           0        0.692248    4.601788   -0.799977
     10          6           0        0.234992    5.916304   -0.836002
     11          6           0       -0.454408    6.444952    0.254592
     12          6           0       -0.679393    5.655402    1.382369
     13          6           0       -0.228293    4.338906    1.409883
     14          8           0        1.630976    1.963714   -0.619021
     15          6           0        0.454446    3.800794    0.317526
     16          6           0        0.877442    2.342868    0.329555
     17          8           0        0.446639    1.621231    1.253799
     18          6           0        0.061978   -1.131488    1.041937
     19          7           0       -1.033541   -0.902924    1.303839
     20          6           0       -3.201231    0.823630   -0.687911
     21          7           0       -2.262122   -0.631804    1.619327
     22          6           0       -4.910348   -0.880010    1.020744
     23          6           0       -2.860760   -2.055682   -0.778136
     24         15           0       -3.274795   -0.676151    0.307241
     25          6           0       -3.745560    0.826043   -1.979591
     26          6           0       -3.748871    2.000402   -2.721194
     27          6           0       -3.205740    3.164837   -2.179695
     28          6           0       -2.648020    3.157194   -0.904687
     29          6           0       -2.638458    1.985448   -0.152175
     30          6           0       -6.028676   -0.296070    0.417927
     31          6           0       -7.292112   -0.513263    0.956718
     32          6           0       -7.439847   -1.307312    2.091418
     33          6           0       -6.325014   -1.886079    2.694636
     34          6           0       -5.057827   -1.676140    2.162984
     35          6           0       -1.726223   -1.941749   -1.595176
     36          6           0       -1.289843   -3.040180   -2.326637
     37          6           0       -1.993600   -4.241302   -2.263160
     38          6           0       -3.130029   -4.351022   -1.464486
     39          6           0       -3.561618   -3.263839   -0.711811
     40          1           0        2.393990   -3.376780    2.151350
     41          1           0        4.236525   -3.186811    3.790054
     42          1           0        5.407952   -1.017260    4.092340
     43          1           0        4.709716    0.957700    2.760963
     44          1           0        1.332600   -2.541416    0.249821
     45          1           0        1.556482    0.319566   -0.655854
     46          1           0        1.225307    4.172574   -1.641798
     47          1           0        0.413069    6.529271   -1.715141
     48          1           0       -0.813038    7.470059    0.227267
     49          1           0       -1.211177    6.065945    2.236158
     50          1           0       -0.409808    3.703188    2.270533
     51          1           0       -4.156445   -0.084339   -2.407309
     52          1           0       -4.167971    2.005235   -3.721961
     53          1           0       -3.206552    4.081304   -2.761516
     54          1           0       -2.210441    4.061093   -0.494916
     55          1           0       -2.163367    1.966271    0.824124
     56          1           0       -5.918857    0.334126   -0.458720
     57          1           0       -8.159787   -0.056635    0.492428
     58          1           0       -8.427399   -1.472111    2.510564
     59          1           0       -6.440717   -2.498999    3.582359
     60          1           0       -4.185711   -2.115938    2.635395
     61          1           0       -1.176350   -1.006797   -1.660482
     62          1           0       -0.397963   -2.955821   -2.938366
     63          1           0       -1.654685   -5.096270   -2.839661
     64          1           0       -3.679246   -5.285857   -1.422522
     65          1           0       -4.440041   -3.356519   -0.080503
     66          1           0        2.853697    0.769350    1.135684
     67         16           0        2.567224   -1.319193   -1.872271
     68          8           0        2.423895   -2.773942   -1.893819
     69          8           0        2.315104   -0.541578   -3.077930
     70          6           0        4.196742   -0.929692   -1.284317
     71          6           0        4.964456   -1.918622   -0.678680
     72          6           0        4.618361    0.397297   -1.312181
     73          6           0        6.171258   -1.567314   -0.088078
     74          1           0        4.612533   -2.944053   -0.659396
     75          6           0        5.828123    0.729007   -0.716741
     76          1           0        3.995260    1.163143   -1.762047
     77          6           0        6.613187   -0.241448   -0.086178
     78          1           0        6.772121   -2.333839    0.393211
     79          1           0        6.160946    1.763082   -0.728533
     80          6           0        7.886749    0.137240    0.622955
     81          1           0        8.302348    1.070113    0.232104
     82          1           0        7.693157    0.281239    1.692807
     83          1           0        8.644587   -0.646234    0.529279
 ---------------------------------------------------------------------
 Rotational constants (GHZ):           0.0835544           0.0444516           0.0366155
 Electric field and nuclear coordinate derivatives read from checkpoint file.
 Rotating derivatives to standard orientation.
 Full mass-weighted force constant matrix:
 Low frequencies ---   -5.7439   -0.0210   -0.0122    0.0117    2.3024    5.6718
 Low frequencies ---   10.4926   14.2057   15.4972
 Diagonal vibrational polarizability:
      497.3490269    1023.0944574     238.3681607
 Harmonic frequencies (cm**-1), IR intensities (KM/Mole), Raman scattering
 activities (A**4/AMU), depolarization ratios for plane and unpolarized
 incident light, reduced masses (AMU), force constants (mDyne/A),
 and normal coordinates:
                      1                      2                      3
                      A                      A                      A
 Frequencies --     10.4028                13.4989                15.3159
 Red. masses --      5.7045                 5.6924                 5.8286
 Frc consts  --      0.0004                 0.0006                 0.0008
 IR Inten    --      3.0455                 1.8636                 0.9011
  Atom  AN      X      Y      Z        X      Y      Z        X      Y      Z
     1   6     0.02  -0.05   0.01    -0.00   0.12   0.12     0.02   0.00   0.00
     2   6     0.02  -0.02   0.01     0.01   0.16   0.10     0.04   0.00  -0.01
     3   6    -0.01  -0.01   0.01     0.03   0.16   0.02     0.05   0.00  -0.03
     4   6    -0.04  -0.02   0.02     0.04   0.12  -0.06     0.04   0.00  -0.03
     5   6    -0.04  -0.04   0.02     0.04   0.08  -0.04     0.02   0.00  -0.01
     6   6    -0.01  -0.05   0.02     0.01   0.08   0.04     0.01   0.00   0.01
     7   6    -0.01  -0.07   0.02     0.01   0.02   0.05    -0.00   0.00   0.03
     8   7    -0.02  -0.09   0.01    -0.01  -0.02   0.03    -0.03   0.01   0.03
     9   6     0.05  -0.06  -0.03    -0.05  -0.01  -0.01    -0.02   0.01   0.09
    10   6     0.09  -0.04  -0.03    -0.04  -0.01   0.01    -0.02   0.01   0.11
    11   6     0.13  -0.01  -0.02     0.02  -0.00   0.04    -0.04  -0.02   0.11
    12   6     0.13   0.01  -0.01     0.06   0.00   0.05    -0.04  -0.04   0.09
    13   6     0.08  -0.01  -0.01     0.05  -0.00   0.03    -0.03  -0.03   0.07
    14   8    -0.05  -0.09  -0.03    -0.06  -0.02  -0.05    -0.02   0.01   0.03
    15   6     0.04  -0.04  -0.02    -0.00  -0.01  -0.00    -0.02  -0.01   0.07
    16   6    -0.02  -0.06  -0.02    -0.02  -0.01  -0.02    -0.01  -0.01   0.05
    17   8    -0.03  -0.03  -0.01     0.01  -0.01  -0.00     0.01  -0.02   0.04
    18   6    -0.01  -0.07   0.02     0.00   0.01   0.04    -0.00  -0.01   0.04
    19   7    -0.01  -0.05   0.01    -0.00  -0.01   0.03    -0.00  -0.01   0.03
    20   6     0.01   0.01   0.02     0.01   0.02   0.04     0.07  -0.03  -0.03
    21   7    -0.01  -0.03   0.00    -0.01  -0.02   0.02    -0.01  -0.02   0.02
    22   6    -0.01   0.01  -0.00    -0.00  -0.03  -0.03    -0.00   0.04  -0.04
    23   6    -0.02   0.01  -0.02     0.03   0.03  -0.02     0.01  -0.05   0.03
    24  15    -0.00   0.00   0.00     0.01  -0.00   0.00     0.02  -0.02  -0.01
    25   6     0.01   0.03   0.02     0.06   0.05   0.02     0.15  -0.06  -0.06
    26   6     0.01   0.04   0.03     0.06   0.07   0.05     0.18  -0.07  -0.07
    27   6     0.02   0.03   0.05     0.01   0.06   0.10     0.12  -0.05  -0.05
    28   6     0.02   0.01   0.05    -0.03   0.04   0.12     0.04  -0.03  -0.02
    29   6     0.01   0.00   0.03    -0.03   0.02   0.09     0.02  -0.02  -0.00
    30   6    -0.00   0.03   0.01    -0.00  -0.07  -0.07     0.03   0.06  -0.09
    31   6    -0.00   0.03   0.00    -0.01  -0.10  -0.10     0.01   0.10  -0.12
    32   6    -0.01   0.02  -0.01    -0.02  -0.08  -0.09    -0.05   0.13  -0.10
    33   6    -0.02  -0.00  -0.02    -0.02  -0.05  -0.05    -0.08   0.11  -0.06
    34   6    -0.02  -0.01  -0.02    -0.01  -0.02  -0.02    -0.06   0.07  -0.03
    35   6    -0.02   0.01  -0.02     0.04   0.04  -0.01     0.03  -0.09   0.05
    36   6    -0.03   0.02  -0.04     0.04   0.06  -0.03     0.03  -0.11   0.09
    37   6    -0.04   0.03  -0.06     0.04   0.06  -0.06     0.01  -0.10   0.11
    38   6    -0.04   0.03  -0.05     0.03   0.04  -0.08    -0.01  -0.06   0.09
    39   6    -0.03   0.02  -0.03     0.02   0.02  -0.06    -0.01  -0.03   0.05
    40   1     0.04  -0.06   0.01    -0.02   0.12   0.18     0.02   0.01   0.02
    41   1     0.04  -0.02   0.01    -0.01   0.20   0.16     0.05   0.00  -0.02
    42   1    -0.01   0.01   0.01     0.03   0.20   0.01     0.06   0.00  -0.04
    43   1    -0.06  -0.00   0.02     0.06   0.12  -0.12     0.04  -0.00  -0.04
    44   1    -0.01  -0.08   0.04     0.03   0.01   0.09    -0.00   0.00   0.02
    45   1    -0.04  -0.09  -0.00    -0.02  -0.02  -0.01    -0.03   0.01   0.03
    46   1     0.01  -0.08  -0.04    -0.09  -0.02  -0.03    -0.01   0.03   0.08
    47   1     0.10  -0.05  -0.04    -0.07  -0.01  -0.00    -0.02   0.03   0.12
    48   1     0.17   0.01  -0.02     0.02   0.00   0.05    -0.05  -0.02   0.12
    49   1     0.16   0.03  -0.00     0.10   0.01   0.07    -0.06  -0.06   0.09
    50   1     0.07   0.00  -0.00     0.08  -0.00   0.04    -0.04  -0.05   0.06
    51   1     0.01   0.04   0.01     0.10   0.05  -0.02     0.19  -0.07  -0.08
    52   1     0.02   0.05   0.03     0.10   0.08   0.04     0.24  -0.08  -0.10
    53   1     0.02   0.04   0.06     0.01   0.08   0.13     0.15  -0.06  -0.06
    54   1     0.02   0.01   0.06    -0.07   0.04   0.16    -0.00  -0.01   0.00
    55   1     0.01  -0.01   0.03    -0.07   0.01   0.11    -0.05   0.00   0.03
    56   1     0.01   0.04   0.02     0.01  -0.08  -0.07     0.07   0.03  -0.10
    57   1     0.00   0.05   0.01    -0.01  -0.13  -0.13     0.03   0.12  -0.15
    58   1    -0.01   0.02  -0.01    -0.03  -0.11  -0.12    -0.06   0.17  -0.13
    59   1    -0.03  -0.02  -0.03    -0.03  -0.04  -0.05    -0.12   0.14  -0.05
    60   1    -0.02  -0.03  -0.02    -0.01   0.01   0.01    -0.08   0.05   0.00
    61   1    -0.01   0.01  -0.00     0.04   0.04   0.02     0.05  -0.10   0.03
    62   1    -0.04   0.02  -0.05     0.05   0.07  -0.01     0.05  -0.14   0.11
    63   1    -0.06   0.03  -0.07     0.05   0.07  -0.08     0.01  -0.12   0.14
    64   1    -0.05   0.03  -0.07     0.03   0.04  -0.11    -0.02  -0.05   0.10
    65   1    -0.03   0.02  -0.03     0.02   0.01  -0.07    -0.02  -0.00   0.03
    66   1    -0.06  -0.05   0.02     0.05   0.04  -0.10     0.01   0.00  -0.00
    67  16     0.01  -0.07   0.03    -0.04  -0.06   0.02    -0.05   0.02   0.00
    68   8     0.08  -0.08   0.08    -0.06  -0.06   0.06    -0.04   0.01   0.00
    69   8    -0.03  -0.13   0.00    -0.06  -0.09   0.01    -0.08   0.02   0.01
    70   6    -0.01   0.03   0.02    -0.02  -0.07  -0.02    -0.04   0.03  -0.03
    71   6     0.07   0.08  -0.00    -0.05  -0.06   0.03    -0.02   0.03  -0.06
    72   6    -0.10   0.06   0.02     0.01  -0.08  -0.09    -0.06   0.03  -0.03
    73   6     0.05   0.16  -0.03    -0.04  -0.05   0.01    -0.00   0.04  -0.09
    74   1     0.13   0.06  -0.00    -0.07  -0.05   0.08    -0.01   0.03  -0.06
    75   6    -0.11   0.14  -0.00     0.02  -0.08  -0.11    -0.04   0.04  -0.06
    76   1    -0.16   0.03   0.04     0.03  -0.09  -0.13    -0.07   0.03  -0.01
    77   6    -0.03   0.19  -0.03    -0.01  -0.06  -0.06    -0.02   0.04  -0.09
    78   1     0.12   0.19  -0.04    -0.05  -0.04   0.05     0.02   0.04  -0.11
    79   1    -0.18   0.16  -0.00     0.04  -0.09  -0.17    -0.05   0.04  -0.07
    80   6    -0.05   0.27  -0.05     0.01  -0.06  -0.08     0.00   0.05  -0.13
    81   1    -0.09   0.27  -0.09     0.01  -0.07  -0.11    -0.01   0.05  -0.14
    82   1    -0.04   0.31  -0.06     0.02  -0.03  -0.09     0.03   0.05  -0.12
    83   1    -0.01   0.30  -0.02    -0.00  -0.07  -0.08     0.00   0.05  -0.14
                      4                      5                      6
                      A                      A                      A
 Frequencies --     21.7512                25.7754                27.3340
 Red. masses --      4.9168                 5.5298                 4.4718
 Frc consts  --      0.0014                 0.0022                 0.0020
 IR Inten    --      0.2339                 0.6843                 0.4861
  Atom  AN      X      Y      Z        X      Y      Z        X      Y      Z
     1   6     0.00   0.09   0.06    -0.04   0.04   0.02     0.01  -0.04  -0.00
     2   6    -0.02   0.12   0.08    -0.04   0.04   0.03     0.03  -0.05  -0.02
     3   6    -0.02   0.13   0.04    -0.03   0.04   0.01     0.04  -0.06  -0.02
     4   6    -0.00   0.10  -0.02    -0.02   0.03  -0.01     0.03  -0.04   0.01
     5   6     0.02   0.06  -0.04    -0.02   0.03  -0.01     0.01  -0.03   0.03
     6   6     0.02   0.05   0.00    -0.03   0.03   0.00     0.00  -0.02   0.02
     7   6     0.04   0.01  -0.01    -0.03   0.02   0.00    -0.01  -0.00   0.04
     8   7     0.03   0.00  -0.02    -0.04   0.02   0.01    -0.01  -0.00   0.04
     9   6     0.01   0.01   0.04     0.18   0.07   0.06    -0.04  -0.03  -0.04
    10   6     0.01   0.01   0.06     0.24   0.09   0.07    -0.06  -0.04  -0.07
    11   6    -0.00  -0.01   0.07     0.21   0.09   0.05    -0.07  -0.02  -0.08
    12   6    -0.01  -0.04   0.05     0.11   0.07   0.02    -0.05   0.01  -0.06
    13   6    -0.02  -0.04   0.02     0.04   0.05   0.00    -0.02   0.02  -0.02
    14   8    -0.00   0.01  -0.02     0.02   0.02   0.02     0.00  -0.01   0.02
    15   6    -0.00  -0.01   0.01     0.08   0.05   0.02    -0.02  -0.00  -0.01
    16   6    -0.01  -0.01  -0.02     0.01   0.03   0.01    -0.00   0.00   0.02
    17   8    -0.02  -0.03  -0.04    -0.04   0.03  -0.02     0.01   0.02   0.04
    18   6     0.02  -0.02  -0.03    -0.03   0.01   0.01    -0.01   0.01   0.04
    19   7     0.02  -0.05  -0.03    -0.03   0.01   0.01    -0.01   0.02   0.03
    20   6     0.01  -0.04  -0.01    -0.03  -0.03  -0.01    -0.00   0.01   0.01
    21   7     0.01  -0.07  -0.02    -0.03   0.00   0.01    -0.01   0.02   0.02
    22   6     0.01  -0.00   0.01    -0.03  -0.04  -0.01    -0.00   0.01  -0.02
    23   6    -0.04  -0.04  -0.03     0.00  -0.02   0.02     0.04   0.02   0.00
    24  15     0.00  -0.04  -0.01    -0.03  -0.02   0.00     0.00   0.01   0.00
    25   6    -0.00  -0.04  -0.00    -0.10  -0.02   0.02    -0.01   0.01   0.01
    26   6    -0.01  -0.04  -0.01    -0.08  -0.04  -0.00    -0.03   0.01   0.01
    27   6     0.01  -0.04  -0.02     0.03  -0.06  -0.06    -0.03   0.01   0.01
    28   6     0.02  -0.04  -0.02     0.10  -0.07  -0.10    -0.03   0.02   0.00
    29   6     0.02  -0.04  -0.02     0.08  -0.05  -0.07    -0.01   0.02   0.00
    30   6     0.03   0.15   0.12    -0.03  -0.02   0.02     0.02   0.17   0.09
    31   6     0.03   0.20   0.15    -0.03  -0.05   0.01     0.02   0.18   0.08
    32   6     0.02   0.10   0.07    -0.02  -0.11  -0.02    -0.01   0.02  -0.03
    33   6    -0.01  -0.05  -0.03    -0.02  -0.13  -0.05    -0.04  -0.15  -0.14
    34   6    -0.01  -0.10  -0.06    -0.02  -0.10  -0.04    -0.04  -0.15  -0.13
    35   6    -0.03  -0.06  -0.02    -0.00   0.00   0.01     0.06   0.05   0.03
    36   6    -0.07  -0.06  -0.05     0.04   0.00   0.03     0.10   0.07   0.04
    37   6    -0.12  -0.04  -0.08     0.08  -0.02   0.06     0.13   0.05   0.02
    38   6    -0.13  -0.01  -0.09     0.08  -0.05   0.06     0.12   0.02  -0.01
    39   6    -0.09  -0.02  -0.06     0.05  -0.05   0.04     0.07   0.00  -0.01
    40   1     0.00   0.08   0.09    -0.04   0.04   0.03     0.01  -0.03  -0.01
    41   1    -0.03   0.15   0.12    -0.05   0.05   0.04     0.05  -0.06  -0.04
    42   1    -0.03   0.16   0.05    -0.04   0.05   0.01     0.06  -0.07  -0.03
    43   1    -0.00   0.10  -0.05    -0.02   0.03  -0.02     0.03  -0.05   0.02
    44   1     0.07   0.01  -0.00    -0.02   0.02   0.00    -0.03  -0.00   0.04
    45   1     0.02   0.00  -0.03    -0.02   0.02   0.01    -0.00  -0.00   0.04
    46   1     0.01   0.03   0.03     0.20   0.07   0.08    -0.04  -0.04  -0.03
    47   1     0.02   0.04   0.08     0.32   0.11   0.10    -0.08  -0.06  -0.09
    48   1    -0.00  -0.01   0.09     0.26   0.11   0.06    -0.08  -0.03  -0.10
    49   1    -0.02  -0.06   0.05     0.08   0.07  -0.00    -0.05   0.02  -0.06
    50   1    -0.02  -0.06   0.00    -0.03   0.03  -0.03    -0.01   0.04  -0.01
    51   1    -0.02  -0.04   0.00    -0.18  -0.01   0.06    -0.01   0.00   0.02
    52   1    -0.02  -0.04  -0.00    -0.14  -0.03   0.02    -0.03   0.00   0.01
    53   1     0.00  -0.05  -0.02     0.04  -0.07  -0.08    -0.05   0.01   0.01
    54   1     0.03  -0.05  -0.03     0.18  -0.08  -0.14    -0.03   0.02   0.00
    55   1     0.04  -0.04  -0.02     0.14  -0.06  -0.10    -0.01   0.02   0.00
    56   1     0.05   0.23   0.17    -0.03   0.02   0.05     0.05   0.29   0.18
    57   1     0.05   0.32   0.23    -0.03  -0.03   0.04     0.04   0.31   0.17
    58   1     0.02   0.14   0.10    -0.02  -0.13  -0.03    -0.02   0.02  -0.04
    59   1    -0.02  -0.13  -0.09    -0.02  -0.17  -0.08    -0.07  -0.27  -0.23
    60   1    -0.03  -0.22  -0.14    -0.02  -0.11  -0.06    -0.06  -0.27  -0.20
    61   1     0.00  -0.08   0.00    -0.03   0.02  -0.00     0.03   0.07   0.04
    62   1    -0.07  -0.08  -0.05     0.04   0.02   0.03     0.11   0.09   0.06
    63   1    -0.15  -0.03  -0.11     0.11  -0.02   0.07     0.17   0.06   0.03
    64   1    -0.16   0.01  -0.12     0.11  -0.06   0.08     0.14   0.00  -0.02
    65   1    -0.09   0.00  -0.07     0.05  -0.07   0.04     0.06  -0.02  -0.03
    66   1     0.03   0.04  -0.08    -0.01   0.02  -0.02    -0.00  -0.02   0.05
    67  16     0.03  -0.00  -0.02    -0.05   0.02  -0.01    -0.03  -0.01   0.03
    68   8     0.03  -0.00  -0.02    -0.06   0.02  -0.01    -0.03  -0.01   0.04
    69   8     0.04   0.00  -0.01    -0.06   0.03  -0.00    -0.04  -0.01   0.03
    70   6     0.03  -0.01  -0.01    -0.05   0.01  -0.02    -0.02  -0.01   0.01
    71   6     0.01  -0.00   0.03    -0.05   0.00  -0.02    -0.01  -0.01  -0.01
    72   6     0.05  -0.01  -0.04    -0.04   0.01  -0.02    -0.02  -0.01   0.02
    73   6    -0.00   0.00   0.05    -0.05  -0.00  -0.02     0.01  -0.02  -0.04
    74   1    -0.01   0.00   0.05    -0.06   0.01  -0.02    -0.00  -0.01  -0.02
    75   6     0.04  -0.01  -0.02    -0.03  -0.00  -0.03    -0.01  -0.01  -0.01
    76   1     0.07  -0.02  -0.07    -0.03   0.01  -0.02    -0.04  -0.00   0.04
    77   6     0.01  -0.00   0.02    -0.04  -0.01  -0.03     0.00  -0.02  -0.04
    78   1    -0.02   0.01   0.08    -0.05  -0.01  -0.02     0.02  -0.02  -0.06
    79   1     0.05  -0.02  -0.04    -0.02  -0.00  -0.03    -0.01  -0.01  -0.01
    80   6     0.00   0.00   0.04    -0.03  -0.01  -0.03     0.02  -0.02  -0.07
    81   1     0.01  -0.00   0.04    -0.03  -0.01  -0.03     0.01  -0.02  -0.07
    82   1    -0.02   0.01   0.04    -0.03  -0.01  -0.03     0.05  -0.02  -0.06
    83   1     0.00  -0.00   0.06    -0.04  -0.02  -0.03     0.02  -0.02  -0.09
                      7                      8                      9
                      A                      A                      A
 Frequencies --     35.2477                35.9774                43.8376
 Red. masses --      5.1464                 5.7216                 5.4428
 Frc consts  --      0.0038                 0.0044                 0.0062
 IR Inten    --      2.3641                 1.4101                 2.4317
  Atom  AN      X      Y      Z        X      Y      Z        X      Y      Z
     1   6     0.02  -0.00  -0.08    -0.05   0.01   0.02     0.16  -0.01  -0.04
     2   6     0.01   0.01  -0.06    -0.08   0.03   0.04     0.20   0.02  -0.10
     3   6    -0.03   0.03  -0.03    -0.07   0.03   0.01     0.14   0.05  -0.09
     4   6    -0.06   0.03  -0.02    -0.03   0.01  -0.03     0.04   0.05  -0.04
     5   6    -0.05   0.01  -0.03    -0.01  -0.01  -0.05    -0.00   0.02   0.01
     6   6    -0.00  -0.00  -0.06    -0.02  -0.01  -0.03     0.05  -0.01   0.01
     7   6    -0.00  -0.01  -0.06    -0.01  -0.03  -0.04     0.02  -0.04   0.05
     8   7    -0.02  -0.01  -0.06     0.01  -0.05  -0.05    -0.03  -0.04   0.04
     9   6    -0.05  -0.01  -0.07    -0.02   0.00   0.06     0.03  -0.01   0.05
    10   6    -0.02   0.00  -0.06    -0.02   0.00   0.13     0.05   0.00   0.04
    11   6     0.06   0.04  -0.02    -0.03  -0.05   0.15     0.01   0.01   0.00
    12   6     0.12   0.06   0.00    -0.04  -0.11   0.11    -0.07   0.00  -0.01
    13   6     0.08   0.04  -0.01    -0.03  -0.11   0.04    -0.08  -0.01   0.00
    14   8    -0.06  -0.01  -0.07    -0.05  -0.03  -0.07    -0.07  -0.04   0.04
    15   6    -0.00   0.01  -0.05    -0.03  -0.05   0.02    -0.04  -0.01   0.03
    16   6    -0.04   0.00  -0.06    -0.02  -0.05  -0.04    -0.06  -0.02   0.05
    17   8    -0.04   0.01  -0.05     0.01  -0.08  -0.04    -0.05   0.00   0.06
    18   6     0.00  -0.03  -0.04    -0.01  -0.02  -0.06     0.03  -0.05   0.06
    19   7     0.01  -0.04   0.00    -0.00   0.02  -0.05     0.03  -0.00   0.02
    20   6     0.04  -0.01   0.05    -0.03   0.03  -0.04     0.02   0.01  -0.04
    21   7     0.01  -0.06   0.03     0.01   0.06  -0.04     0.03   0.05  -0.01
    22   6     0.01  -0.01   0.01     0.01   0.04  -0.01     0.04   0.02   0.00
    23   6     0.02  -0.02   0.02     0.03   0.03  -0.01     0.04   0.03  -0.01
    24  15     0.02  -0.03   0.02    -0.00   0.04  -0.03     0.04   0.03  -0.01
    25   6     0.11   0.00   0.02    -0.07   0.04  -0.03    -0.01  -0.02  -0.03
    26   6     0.11   0.02   0.05    -0.09   0.04  -0.02    -0.02  -0.04  -0.06
    27   6     0.05   0.02   0.10    -0.08   0.04  -0.04    -0.01  -0.03  -0.09
    28   6    -0.02   0.01   0.13    -0.04   0.03  -0.05     0.01   0.01  -0.10
    29   6    -0.02  -0.01   0.10    -0.01   0.03  -0.06     0.02   0.02  -0.07
    30   6     0.03   0.03   0.01    -0.00   0.04   0.01     0.03  -0.01   0.00
    31   6     0.02   0.06   0.00     0.01   0.06   0.04     0.04  -0.01   0.02
    32   6    -0.01   0.04  -0.02     0.03   0.08   0.06     0.06   0.01   0.04
    33   6    -0.03  -0.01  -0.02     0.04   0.08   0.04     0.08   0.04   0.04
    34   6    -0.02  -0.03  -0.01     0.03   0.06   0.00     0.07   0.04   0.02
    35   6     0.02  -0.02   0.01     0.00   0.07  -0.04     0.05   0.03   0.00
    36   6     0.04  -0.03   0.04     0.07   0.06   0.01     0.03   0.04  -0.03
    37   6     0.07  -0.04   0.07     0.16   0.01   0.09    -0.00   0.06  -0.08
    38   6     0.07  -0.05   0.07     0.19  -0.03   0.13    -0.01   0.06  -0.09
    39   6     0.04  -0.04   0.04     0.12  -0.02   0.07     0.01   0.04  -0.06
    40   1     0.05  -0.02  -0.10    -0.06   0.01   0.04     0.20  -0.03  -0.05
    41   1     0.03   0.01  -0.08    -0.10   0.04   0.07     0.28   0.02  -0.14
    42   1    -0.04   0.04  -0.02    -0.08   0.04   0.03     0.18   0.07  -0.14
    43   1    -0.09   0.05   0.01    -0.03   0.00  -0.05    -0.01   0.08  -0.04
    44   1     0.01  -0.01  -0.07    -0.00  -0.03  -0.03     0.03  -0.04   0.06
    45   1    -0.04  -0.00  -0.06    -0.01  -0.05  -0.07    -0.04  -0.04   0.04
    46   1    -0.11  -0.03  -0.10    -0.02   0.04   0.04     0.06  -0.01   0.07
    47   1    -0.06  -0.01  -0.08    -0.02   0.05   0.16     0.11   0.01   0.05
    48   1     0.09   0.05  -0.01    -0.03  -0.05   0.20     0.02   0.01  -0.01
    49   1     0.18   0.08   0.03    -0.04  -0.15   0.12    -0.10   0.00  -0.04
    50   1     0.11   0.06   0.01    -0.03  -0.15   0.01    -0.13  -0.01  -0.01
    51   1     0.15  -0.00  -0.02    -0.08   0.04  -0.02    -0.01  -0.03   0.00
    52   1     0.17   0.03   0.02    -0.12   0.04  -0.01    -0.04  -0.07  -0.05
    53   1     0.05   0.04   0.12    -0.09   0.04  -0.04    -0.03  -0.04  -0.12
    54   1    -0.07   0.01   0.18    -0.02   0.03  -0.06     0.02   0.02  -0.13
    55   1    -0.07  -0.02   0.13     0.01   0.03  -0.07     0.04   0.05  -0.08
    56   1     0.05   0.05   0.03    -0.02   0.02  -0.01     0.01  -0.02  -0.01
    57   1     0.04   0.10   0.01    -0.00   0.06   0.06     0.03  -0.03   0.02
    58   1    -0.01   0.06  -0.02     0.04   0.10   0.09     0.07   0.01   0.06
    59   1    -0.05  -0.03  -0.04     0.06   0.10   0.06     0.09   0.05   0.05
    60   1    -0.03  -0.07  -0.02     0.04   0.06  -0.01     0.08   0.06   0.02
    61   1     0.00  -0.01  -0.00    -0.06   0.11  -0.10     0.07   0.02   0.03
    62   1     0.04  -0.03   0.05     0.05   0.10  -0.02     0.03   0.04  -0.02
    63   1     0.09  -0.05   0.10     0.22   0.01   0.14    -0.02   0.07  -0.11
    64   1     0.09  -0.06   0.09     0.27  -0.07   0.20    -0.04   0.07  -0.13
    65   1     0.04  -0.04   0.04     0.15  -0.05   0.10     0.00   0.04  -0.06
    66   1    -0.07   0.01  -0.02     0.01  -0.03  -0.09    -0.07   0.02   0.05
    67  16    -0.01   0.02  -0.07     0.03  -0.06  -0.03    -0.06  -0.03   0.01
    68   8    -0.01   0.02  -0.10     0.04  -0.06   0.00    -0.05  -0.03  -0.00
    69   8     0.00   0.05  -0.05     0.03  -0.09  -0.05    -0.09  -0.02   0.02
    70   6    -0.02   0.00  -0.03     0.02  -0.04  -0.02    -0.05  -0.04  -0.01
    71   6    -0.05  -0.00  -0.01     0.01  -0.01   0.03    -0.06  -0.03   0.01
    72   6    -0.02   0.00   0.00     0.01  -0.03  -0.05    -0.06  -0.03  -0.00
    73   6    -0.08  -0.01   0.06    -0.00   0.02   0.05    -0.08  -0.02   0.05
    74   1    -0.05  -0.00  -0.03     0.02  -0.01   0.06    -0.05  -0.03   0.00
    75   6    -0.05  -0.00   0.07    -0.00  -0.01  -0.04    -0.08  -0.02   0.03
    76   1     0.01   0.01  -0.02     0.02  -0.05  -0.10    -0.05  -0.04  -0.02
    77   6    -0.09  -0.01   0.11    -0.01   0.02   0.01    -0.10  -0.02   0.07
    78   1    -0.11  -0.02   0.09    -0.01   0.04   0.08    -0.10  -0.01   0.08
    79   1    -0.05  -0.00   0.10    -0.01  -0.01  -0.07    -0.09  -0.02   0.04
    80   6    -0.14  -0.02   0.21    -0.04   0.05   0.03    -0.14  -0.00   0.14
    81   1    -0.12   0.00   0.27    -0.03   0.04   0.01    -0.15   0.03   0.20
    82   1    -0.22  -0.06   0.20    -0.07   0.09   0.02    -0.20  -0.05   0.14
    83   1    -0.12  -0.00   0.24    -0.03   0.05   0.09    -0.11   0.03   0.15
                     10                     11                     12
                      A                      A                      A
 Frequencies --     46.7308                51.4709                53.9392
 Red. masses --      6.0052                 3.7863                 1.1051
 Frc consts  --      0.0077                 0.0059                 0.0019
 IR Inten    --      0.3761                 1.4899                 0.2273
  Atom  AN      X      Y      Z        X      Y      Z        X      Y      Z
     1   6    -0.07   0.00   0.11    -0.07   0.00   0.02     0.01  -0.00  -0.01
     2   6    -0.14   0.04   0.19    -0.08  -0.03   0.04     0.02   0.00  -0.01
     3   6    -0.15   0.04   0.19    -0.02  -0.06   0.02     0.01   0.01  -0.01
     4   6    -0.08   0.01   0.10     0.05  -0.06  -0.01    -0.01   0.01   0.00
     5   6    -0.01  -0.03   0.03     0.06  -0.02  -0.02    -0.01   0.00   0.01
     6   6    -0.00  -0.03   0.03     0.00   0.01  -0.01     0.00  -0.00   0.00
     7   6     0.03  -0.05   0.00    -0.00   0.03  -0.01     0.00  -0.00   0.00
     8   7    -0.01  -0.01   0.03     0.00   0.03  -0.01     0.00  -0.00   0.00
     9   6     0.02  -0.06  -0.01     0.01   0.00  -0.01    -0.00   0.00   0.00
    10   6     0.01  -0.06  -0.06    -0.06  -0.02  -0.00     0.01   0.00  -0.00
    11   6    -0.02  -0.04  -0.09    -0.08  -0.05   0.00     0.01   0.01  -0.00
    12   6    -0.03  -0.00  -0.07    -0.04  -0.06   0.00     0.00   0.01  -0.00
    13   6    -0.02   0.00  -0.02     0.03  -0.04  -0.00    -0.01   0.01   0.00
    14   8     0.04  -0.04   0.08     0.10   0.03  -0.03    -0.02  -0.00   0.01
    15   6     0.00  -0.03   0.01     0.05  -0.01  -0.01    -0.01   0.00   0.00
    16   6     0.00  -0.03   0.05     0.10   0.01  -0.02    -0.02   0.00   0.01
    17   8    -0.03  -0.02   0.04     0.13  -0.01  -0.01    -0.02   0.00   0.01
    18   6     0.02  -0.11   0.01     0.01   0.06   0.00    -0.00  -0.01   0.00
    19   7     0.03  -0.06   0.00     0.01   0.05   0.02    -0.00  -0.01  -0.00
    20   6     0.04  -0.01  -0.00     0.01   0.02   0.01    -0.00  -0.00  -0.00
    21   7     0.04  -0.03  -0.01     0.01   0.05   0.02    -0.00  -0.01  -0.00
    22   6     0.05  -0.01   0.00     0.01   0.01   0.03    -0.00  -0.00  -0.01
    23   6     0.05   0.00  -0.03     0.00   0.02   0.03    -0.00  -0.01  -0.01
    24  15     0.04  -0.01  -0.01     0.01   0.03   0.03    -0.00  -0.01  -0.01
    25   6     0.04  -0.01  -0.01     0.04  -0.00   0.00    -0.01   0.00   0.00
    26   6     0.04  -0.01  -0.01     0.08  -0.02  -0.03    -0.02   0.01   0.01
    27   6     0.03  -0.01  -0.00     0.10  -0.02  -0.05    -0.02   0.00   0.01
    28   6     0.02  -0.00   0.00     0.07  -0.00  -0.04    -0.01  -0.00   0.01
    29   6     0.02  -0.01   0.00     0.02   0.02  -0.01    -0.00  -0.00   0.00
    30   6     0.04  -0.02   0.01     0.00   0.00   0.04     0.00  -0.00  -0.01
    31   6     0.05   0.02   0.05     0.00  -0.05   0.02    -0.00   0.01  -0.01
    32   6     0.07   0.07   0.09     0.01  -0.10  -0.01    -0.00   0.02  -0.00
    33   6     0.08   0.08   0.08     0.02  -0.09  -0.02    -0.00   0.01   0.00
    34   6     0.07   0.04   0.04     0.02  -0.04  -0.00    -0.00   0.01  -0.00
    35   6     0.05   0.03  -0.03     0.01   0.01   0.03     0.00  -0.00  -0.01
    36   6     0.05   0.04  -0.05    -0.01   0.02   0.02     0.00  -0.01  -0.00
    37   6     0.06   0.04  -0.07    -0.04   0.03  -0.00     0.01  -0.01   0.00
    38   6     0.07   0.01  -0.07    -0.04   0.04  -0.01     0.01  -0.01   0.00
    39   6     0.06  -0.00  -0.04    -0.02   0.04   0.01     0.00  -0.01  -0.00
    40   1    -0.07   0.00   0.12    -0.11   0.02   0.03     0.02  -0.01  -0.01
    41   1    -0.20   0.06   0.26    -0.13  -0.04   0.06     0.03   0.00  -0.02
    42   1    -0.21   0.07   0.25    -0.03  -0.09   0.03     0.01   0.01  -0.01
    43   1    -0.08   0.01   0.10     0.10  -0.08  -0.02    -0.01   0.01   0.01
    44   1     0.08  -0.05  -0.03    -0.03   0.04  -0.01     0.00  -0.00   0.00
    45   1    -0.01  -0.01   0.06     0.04   0.02  -0.02    -0.01  -0.00   0.00
    46   1     0.04  -0.08   0.01     0.02   0.03  -0.01    -0.00  -0.00   0.00
    47   1     0.02  -0.09  -0.07    -0.09  -0.01  -0.00     0.02   0.00  -0.00
    48   1    -0.02  -0.04  -0.13    -0.13  -0.07   0.00     0.02   0.01  -0.00
    49   1    -0.05   0.02  -0.09    -0.05  -0.09   0.00     0.01   0.02  -0.00
    50   1    -0.04   0.03  -0.00     0.06  -0.05  -0.00    -0.01   0.01   0.00
    51   1     0.05  -0.01  -0.01     0.02  -0.00   0.02    -0.01   0.00  -0.00
    52   1     0.05  -0.01  -0.01     0.10  -0.04  -0.04    -0.02   0.01   0.01
    53   1     0.02  -0.01  -0.00     0.13  -0.04  -0.07    -0.03   0.01   0.02
    54   1     0.00  -0.00   0.01     0.07   0.00  -0.05    -0.01  -0.00   0.01
    55   1     0.02  -0.00   0.00     0.00   0.03   0.00     0.00  -0.01  -0.00
    56   1     0.02  -0.06  -0.02    -0.00   0.03   0.06     0.00  -0.01  -0.01
    57   1     0.04   0.01   0.05    -0.00  -0.05   0.03     0.00   0.01  -0.01
    58   1     0.08   0.10   0.13     0.01  -0.14  -0.03    -0.00   0.02   0.00
    59   1     0.10   0.12   0.12     0.03  -0.12  -0.04    -0.01   0.02   0.01
    60   1     0.08   0.05   0.04     0.03  -0.03  -0.01    -0.01   0.00   0.00
    61   1     0.04   0.03  -0.01     0.02   0.00   0.05    -0.00  -0.00  -0.01
    62   1     0.05   0.06  -0.05    -0.01   0.01   0.02     0.00  -0.01  -0.00
    63   1     0.06   0.05  -0.09    -0.06   0.03  -0.02     0.01  -0.01   0.00
    64   1     0.07   0.01  -0.08    -0.07   0.05  -0.03     0.01  -0.01   0.00
    65   1     0.07  -0.02  -0.04    -0.03   0.05  -0.00     0.00  -0.01  -0.00
    66   1     0.04  -0.05  -0.02     0.11  -0.02  -0.04    -0.02   0.00   0.01
    67  16    -0.05   0.04  -0.04    -0.02  -0.01  -0.02     0.00   0.00   0.00
[...]
 Vib (Bot)   54  0.341256D+00         -0.466919         -1.075121
 Vib (Bot)   55  0.320613D+00         -0.494019         -1.137521
 Vib (Bot)   56  0.315910D+00         -0.500436         -1.152297
 Vib (Bot)   57  0.302381D+00         -0.519446         -1.196069
 Vib (Bot)   58  0.297209D+00         -0.526938         -1.213319
 Vib (Bot)   59  0.290138D+00         -0.537395         -1.237399
 Vib (Bot)   60  0.271144D+00         -0.566800         -1.305106
 Vib (Bot)   61  0.259293D+00         -0.586209         -1.349796
 Vib (Bot)   62  0.247777D+00         -0.605939         -1.395227
 Vib (Bot)   63  0.246138D+00         -0.608820         -1.401861
 Vib (Bot)   64  0.244670D+00         -0.611419         -1.407844
 Vib (Bot)   65  0.236787D+00         -0.625642         -1.440595
 Vib (V=0)                            19.833202         45.667636
 Vib (V=0)    1  0.180864D+02          1.257351          2.895158
 Vib (V=0)    2  0.140553D+02          1.147841          2.643001
 Vib (V=0)    3  0.124487D+02          1.095125          2.521618
 Vib (V=0)    4  0.891858D+01          0.950296          2.188137
 Vib (V=0)    5  0.760758D+01          0.881247          2.029145
 Vib (V=0)    6  0.720370D+01          0.857556          1.974595
 Vib (V=0)    7  0.570499D+01          0.756255          1.741342
 Vib (V=0)    8  0.560009D+01          0.748195          1.722783
 Vib (V=0)    9  0.469214D+01          0.671371          1.545888
 Vib (V=0)   10  0.443514D+01          0.646907          1.489559
 Vib (V=0)   11  0.407685D+01          0.610325          1.405325
 Vib (V=0)   12  0.391537D+01          0.592772          1.364909
 Vib (V=0)   13  0.364485D+01          0.561680          1.293315
 Vib (V=0)   14  0.360162D+01          0.556498          1.281385
 Vib (V=0)   15  0.334930D+01          0.524954          1.208751
 Vib (V=0)   16  0.326005D+01          0.513225          1.181743
 Vib (V=0)   17  0.321704D+01          0.507457          1.168462
 Vib (V=0)   18  0.292209D+01          0.465693          1.072298
 Vib (V=0)   19  0.280352D+01          0.447704          1.030878
 Vib (V=0)   20  0.274798D+01          0.439014          1.010867
 Vib (V=0)   21  0.264528D+01          0.422472          0.972778
 Vib (V=0)   22  0.236545D+01          0.373914          0.860970
 Vib (V=0)   23  0.225337D+01          0.352832          0.812426
 Vib (V=0)   24  0.209396D+01          0.320968          0.739057
 Vib (V=0)   25  0.192530D+01          0.284497          0.655080
 Vib (V=0)   26  0.173507D+01          0.239316          0.551045
 Vib (V=0)   27  0.169958D+01          0.230340          0.530379
 Vib (V=0)   28  0.159812D+01          0.203610          0.468829
 Vib (V=0)   29  0.155015D+01          0.190373          0.438350
 Vib (V=0)   30  0.153321D+01          0.185601          0.427362
 Vib (V=0)   31  0.147351D+01          0.168352          0.387645
 Vib (V=0)   32  0.142098D+01          0.152589          0.351348
 Vib (V=0)   33  0.138589D+01          0.141728          0.326341
 Vib (V=0)   34  0.135562D+01          0.132139          0.304262
 Vib (V=0)   35  0.134057D+01          0.127290          0.293096
 Vib (V=0)   36  0.132648D+01          0.122702          0.282531
 Vib (V=0)   37  0.130743D+01          0.116418          0.268063
 Vib (V=0)   38  0.128823D+01          0.109993          0.253268
 Vib (V=0)   39  0.127336D+01          0.104950          0.241657
 Vib (V=0)   40  0.126139D+01          0.100848          0.232211
 Vib (V=0)   41  0.123123D+01          0.090337          0.208010
 Vib (V=0)   42  0.120030D+01          0.079289          0.182569
 Vib (V=0)   43  0.118235D+01          0.072746          0.167503
 Vib (V=0)   44  0.115444D+01          0.062371          0.143614
 Vib (V=0)   45  0.113775D+01          0.056046          0.129051
 Vib (V=0)   46  0.112273D+01          0.050274          0.115761
 Vib (V=0)   47  0.111829D+01          0.048555          0.111803
 Vib (V=0)   48  0.111824D+01          0.048537          0.111760
 Vib (V=0)   49  0.111702D+01          0.048061          0.110665
 Vib (V=0)   50  0.111424D+01          0.046979          0.108174
 Vib (V=0)   51  0.111249D+01          0.046295          0.106597
 Vib (V=0)   52  0.110812D+01          0.044588          0.102668
 Vib (V=0)   53  0.110748D+01          0.044337          0.102090
 Vib (V=0)   54  0.110536D+01          0.043502          0.100168
 Vib (V=0)   55  0.109396D+01          0.039003          0.089807
 Vib (V=0)   56  0.109144D+01          0.037999          0.087496
 Vib (V=0)   57  0.108432D+01          0.035159          0.080956
 Vib (V=0)   58  0.108166D+01          0.034092          0.078501
 Vib (V=0)   59  0.107808D+01          0.032652          0.075185
 Vib (V=0)   60  0.106879D+01          0.028891          0.066525
 Vib (V=0)   61  0.106323D+01          0.026629          0.061316
 Vib (V=0)   62  0.105803D+01          0.024496          0.056405
 Vib (V=0)   63  0.105730D+01          0.024199          0.055719
 Vib (V=0)   64  0.105665D+01          0.023933          0.055107
 Vib (V=0)   65  0.105323D+01          0.022525          0.051866
 Electronic      0.100000D+01          0.000000          0.000000
 Translational   0.513686D+09          8.710698         20.057123
 Rotational      0.617106D+08          7.790360         17.937967
 ***** Axes restored to original set *****
 -------------------------------------------------------------------
 Center     Atomic                   Forces (Hartrees/Bohr)
 Number     Number              X              Y              Z
 -------------------------------------------------------------------
      1        6          -0.000003579   -0.000002265   -0.000002465
      2        6           0.000002470   -0.000002840    0.000002983
      3        6          -0.000000276    0.000000570    0.000002146
      4        6          -0.000003421   -0.000002658    0.000000053
      5        6           0.000002646   -0.000000522    0.000000904
      6        6           0.000001109   -0.000000773    0.000005495
      7        6           0.000001486   -0.000000477    0.000001328
      8        7          -0.000012001   -0.000013123   -0.000000068
      9        6           0.000000052    0.000001926   -0.000002080
     10        6           0.000000823    0.000002038   -0.000003346
     11        6          -0.000000496    0.000000905   -0.000001738
     12        6           0.000000342   -0.000000349   -0.000004333
     13        6          -0.000000779   -0.000002029   -0.000002748
     14        8          -0.000000265   -0.000012228    0.000000860
     15        6           0.000000911    0.000002032   -0.000001192
     16        6           0.000001178    0.000000301   -0.000011467
     17        8          -0.000000810    0.000002122    0.000004548
     18        6          -0.000000767   -0.000000494    0.000000450
     19        7           0.000002644   -0.000002353   -0.000000438
     20        6           0.000000951   -0.000000044    0.000000749
     21        7          -0.000012276    0.000003920   -0.000009403
     22        6          -0.000004504   -0.000004056   -0.000005008
     23        6          -0.000004075    0.000001723   -0.000000189
     24       15           0.000013868   -0.000001111    0.000012618
     25        6          -0.000000472    0.000000209   -0.000003559
     26        6           0.000000550    0.000002961   -0.000001026
     27        6           0.000000356    0.000002039   -0.000001962
     28        6           0.000001407    0.000000711    0.000000992
     29        6           0.000000560   -0.000001141   -0.000003071
     30        6           0.000001660    0.000000544    0.000001781
     31        6          -0.000000112   -0.000000502    0.000000066
     32        6          -0.000000767   -0.000001367   -0.000000390
     33        6          -0.000000193   -0.000001752    0.000000434
     34        6           0.000000808   -0.000000521   -0.000000081
     35        6           0.000001056    0.000001253    0.000001980
     36        6           0.000000971   -0.000001700    0.000002528
     37        6          -0.000000669    0.000001459    0.000001830
     38        6          -0.000000075    0.000001091    0.000001970
     39        6           0.000000227   -0.000000075    0.000002635
     40        1           0.000000663   -0.000001059    0.000001837
     41        1          -0.000001383   -0.000002127    0.000001976
     42        1          -0.000000388   -0.000002339    0.000000584
     43        1           0.000000554   -0.000000561   -0.000000770
     44        1           0.000000870   -0.000000388    0.000001399
     45        1           0.000002541    0.000020747    0.000002770
     46        1           0.000000271    0.000000758   -0.000002903
     47        1           0.000000510    0.000001592   -0.000003009
     48        1           0.000000572    0.000000563   -0.000003973
     49        1          -0.000000094   -0.000000248   -0.000003459
     50        1          -0.000000424   -0.000000726   -0.000001885
     51        1           0.000000388    0.000000791    0.000000342
     52        1           0.000000313    0.000001095   -0.000001431
     53        1           0.000000038    0.000001830   -0.000002665
     54        1           0.000001499    0.000000644   -0.000002743
     55        1          -0.000001329   -0.000000566   -0.000000949
     56        1           0.000000366    0.000000016   -0.000001676
     57        1           0.000000002   -0.000000699   -0.000001181
     58        1          -0.000000471   -0.000001880   -0.000000955
     59        1          -0.000000164   -0.000002118    0.000000074
     60        1          -0.000000595   -0.000001782    0.000001234
     61        1           0.000000453    0.000000273    0.000001150
     62        1          -0.000000322    0.000002227    0.000000895
     63        1           0.000000718    0.000000968    0.000003115
     64        1          -0.000000367   -0.000000004    0.000002307
     65        1          -0.000000133   -0.000000282    0.000000755
     66        1          -0.000001021   -0.000000129    0.000000428
     67       16           0.000004224    0.000001436    0.000002720
     68        8           0.000000895   -0.000001690    0.000000657
     69        8           0.000001582    0.000003879   -0.000002043
     70        6           0.000001578    0.000002937    0.000002979
     71        6          -0.000000067    0.000002196   -0.000000408
     72        6           0.000000375    0.000000370   -0.000003702
     73        6          -0.000000475   -0.000001345    0.000002868
     74        1          -0.000001124    0.000000262    0.000003310
     75        6          -0.000000464    0.000000941    0.000000218
     76        1          -0.000000713   -0.000000237    0.000002148
     77        6          -0.000000066    0.000000818    0.000001598
     78        1           0.000000324   -0.000000114    0.000002335
     79        1           0.000000253    0.000000813    0.000000197
     80        6           0.000000289   -0.000000073    0.000001413
     81        1          -0.000000356    0.000000459    0.000000499
     82        1           0.000000522   -0.000000721    0.000000808
     83        1          -0.000000384    0.000000048    0.000001348
 -------------------------------------------------------------------
 Cartesian Forces:  Max     0.000020747 RMS     0.000003064
 FormGI is forming the generalized inverse of G from B-inverse, IUseBI=4.

 ----------------------------------------------------------------------

 Electric dipole moment (input orientation):
 (Debye = 10**-18 statcoulomb cm , SI units = C m)
                  (au)            (Debye)         (10**-30 SI)
   Tot        0.470280D+01      0.119533D+02      0.398720D+02
   x          0.394985D+01      0.100395D+02      0.334883D+02
   y         -0.178208D+01     -0.452959D+01     -0.151091D+02
   z         -0.182733D+01     -0.464461D+01     -0.154928D+02

 Dipole polarizability, Alpha (input orientation).
 (esu units = cm**3 , SI units = C**2 m**2 J**-1)
 Alpha(0;0):
               (au)            (10**-24 esu)      (10**-40 SI)
   iso        0.587713D+03      0.870901D+02      0.969008D+02
   aniso      0.158343D+03      0.234640D+02      0.261073D+02
   xx         0.636405D+03      0.943055D+02      0.104929D+03
   yx        -0.338529D+01     -0.501648D+00     -0.558159D+00
   yy         0.608485D+03      0.901682D+02      0.100326D+03
   zx         0.546166D+01      0.809335D+00      0.900507D+00
   zy         0.670997D+02      0.994314D+01      0.110632D+02
   zz         0.518249D+03      0.767965D+02      0.854476D+02

 ----------------------------------------------------------------------

 Dipole orientation:
     6         -7.81045626          2.88038436         -1.08149031
     6        -10.08047473          2.33964448         -2.29674018
     6        -10.11250779          0.66592426         -4.32594925
     6         -7.87597308         -0.47450294         -5.12152641
     6         -5.61032589          0.04107852         -3.89533624
     6         -5.57571313          1.73481868         -1.87752904
     6         -3.10805650          2.46187411         -0.57256138
     7         -0.84149690          2.65486015         -2.12585940
     6          3.63868896         -5.80827596         -5.67530994
     6          5.00566421         -8.00277311         -6.16262189
     6          4.35902800        -10.25359417         -4.95502009
     6          2.33458054        -10.30178396         -3.26736348
     6          0.98473454         -8.09895103         -2.77333633
     8          0.71249184         -1.50205988         -4.67019382
     6          1.63374128         -5.83546143         -3.96295755
     6          0.23716323         -3.41718078         -3.30612847
     8         -1.24546751         -3.47121374         -1.46987905
     6         -2.43930009          0.71662207          1.49408562
     7         -1.66886428         -0.45975861          3.14935378
     6          4.49500490         -2.20715493          3.88779611
     7         -0.82756904         -1.82326532          5.00440597
     6          2.34432703         -2.21936261          9.04494286
     6          2.36427444          2.42653563          5.89717942
    15          2.04884671         -0.96693053          5.90436641
     6          6.94093769         -1.19955851          4.02329931
     6          8.85586491         -2.23989978          2.56052685
     6          8.33072089         -4.26676656          0.96095761
     6          5.89397768         -5.24280318          0.79995823
     6          3.95865563         -4.21410707          2.25662486
     6          4.67739681         -3.08078982          9.93728304
     6          4.88376733         -3.94531170         12.41024231
     6          2.77468315         -3.95358992         13.98477199
     6          0.44773881         -3.10222002         13.09346901
     6          0.22225402         -2.23190218         10.62511878
     6          2.62514039          3.65947718          3.56509433
     6          2.57830526          6.28383769          3.46569709
     6          2.31663031          7.67743420          5.68479909
     6          2.08798895          6.45550963          8.00588847
     6          2.09087420          3.82944930          8.11965217
     1         -7.77926966          4.21929848          0.47691899
     1        -11.81276902          3.24498164         -1.67332962
     1        -11.87532511          0.25865544         -5.29457789
     1         -7.89010447         -1.76544532         -6.71613098
     1         -3.37478218          4.30631042          0.33477818
     1         -0.27853376          0.98986747         -3.09342153
     1          4.12262969         -4.03832481         -6.58983612
     1          6.57960084         -7.96000087         -7.48016360
     1          5.42577198        -11.96677007         -5.33141435
     1          1.81879886        -12.05473753         -2.33139719
     1         -0.57365524         -8.09048760         -1.44015772
     1          7.34540211          0.39658080          5.24992935
     1         10.75050581         -1.46236470          2.65871451
     1          9.82811809         -5.07465070         -0.18506413
     1          5.48751590         -6.79731180         -0.47258555
     1          2.03950199         -4.91638665          2.07009839
     1          6.32215838         -3.10200301          8.71253214
     1          6.69120248         -4.62249642         13.10126076
     1          2.94235852         -4.63487190         15.91215719
     1         -1.19654477         -3.12134818         14.31801193
     1         -1.59007157         -1.58607236          9.91648520
     1          2.85083093          2.59169002          1.82570756
     1          2.73387969          7.23037453          1.65400887
     1          2.29163722          9.72690499          5.60463252
     1          1.89688276          7.54682857          9.73122238
     1          1.88780794          2.88290264          9.92859133
     1         -3.86327618         -0.81401060         -4.53878714
    16         -0.49159218          5.21680565         -3.87445188
     8         -1.31373679          7.37051495         -2.35193427
     8          2.08147708          5.11391912         -4.84709879
     6         -2.61309843          4.88153016         -6.45231857
     6         -4.90203928          6.17274574         -6.42919845
     6         -2.05968095          3.11522326         -8.32308138
     6         -6.66396675          5.67376677         -8.30903415
     1         -5.30224943          7.52638048         -4.94389864
     6         -3.84490387          2.64265783        -10.18723014
     1         -0.28956526          2.08130857         -8.28563295
     6         -6.17479066          3.88988608        -10.19412482
     1         -8.46131739          6.66573207         -8.29364248
     1         -3.43250190          1.25851800        -11.64624542
     6         -8.15793800          3.26529068        -12.13758199
     1         -7.32030172          2.45703615        -13.84496338
     1         -9.49105222          1.87546611        -11.37177542
     1         -9.24661869          4.93993451        -12.67109386

 Electric dipole moment (dipole orientation):
 (Debye = 10**-18 statcoulomb cm , SI units = C m)
                  (au)            (Debye)         (10**-30 SI)
   Tot        0.470280D+01      0.119533D+02      0.398720D+02
   x          0.000000D+00      0.000000D+00      0.000000D+00
   y          0.000000D+00      0.000000D+00      0.000000D+00
   z          0.470280D+01      0.119533D+02      0.398720D+02

 Dipole polarizability, Alpha (dipole orientation).
 (esu units = cm**3 , SI units = C**2 m**2 J**-1)
 Alpha(0;0):
               (au)            (10**-24 esu)      (10**-40 SI)
   iso        0.587713D+03      0.870901D+02      0.969008D+02
   aniso      0.158343D+03      0.234640D+02      0.261073D+02
   xx         0.581173D+03      0.861209D+02      0.958225D+02
   yx        -0.749308D+02     -0.111036D+02     -0.123544D+02
   yy         0.549060D+03      0.813623D+02      0.905277D+02
   zx         0.164421D+02      0.243646D+01      0.271093D+01
   zy         0.261327D+02      0.387247D+01      0.430870D+01
   zz         0.632906D+03      0.937871D+02      0.104352D+03

 ----------------------------------------------------------------------

 This type of calculation cannot be archived.


 Children are likely to live up to what you believe of them.
 -- Lady Bird Johnson
 Job cpu time:       0 days  0 hours  0 minutes  2.5 seconds.
 Elapsed time:       0 days  0 hours  0 minutes  0.7 seconds.
 File lengths (MBytes):  RWF=     11 Int=      0 D2E=      0 Chk=     15 Scr=      1
 Normal termination of Gaussian 16 at Sat Apr  4 18:50:34 2020.
