 Entering Gaussian System, Link 0=g16
 Initial command:
 /apps/cent7/gaussian/g16-A.03/g16-haswell/g16/l1.exe "/scratch/brown/finej/0051_imine_mechanism/ts_631gd/acyclic_complete/new_logs_2/Gau-245072.inp" -scrdir="/scratch/brown/finej/0051_imine_mechanism/ts_631gd/acyclic_complete/new_logs_2/"
 Entering Link 1 = /apps/cent7/gaussian/g16-A.03/g16-haswell/g16/l1.exe PID=    245073.
  
 Copyright (c) 1988,1990,1992,1993,1995,1998,2003,2009,2016,
            Gaussian, Inc.  All Rights Reserved.
  
 This is part of the Gaussian(R) 16 program.  It is based on
 the Gaussian(R) 09 system (copyright 2009, Gaussian, Inc.),
 the Gaussian(R) 03 system (copyright 2003, Gaussian, Inc.),
 the Gaussian(R) 98 system (copyright 1998, Gaussian, Inc.),
 the Gaussian(R) 94 system (copyright 1995, Gaussian, Inc.),
 the Gaussian 92(TM) system (copyright 1992, Gaussian, Inc.),
 the Gaussian 90(TM) system (copyright 1990, Gaussian, Inc.),
 the Gaussian 88(TM) system (copyright 1988, Gaussian, Inc.),
 the Gaussian 86(TM) system (copyright 1986, Carnegie Mellon
 University), and the Gaussian 82(TM) system (copyright 1983,
 Carnegie Mellon University). Gaussian is a federally registered
 trademark of Gaussian, Inc.
  
 This software contains proprietary and confidential information,
 including trade secrets, belonging to Gaussian, Inc.
  
 This software is provided under written license and may be
 used, copied, transmitted, or stored only in accord with that
 written license.
  
 The following legend is applicable only to US Government
 contracts under FAR:
  
                    RESTRICTED RIGHTS LEGEND
  
 Use, reproduction and disclosure by the US Government is
 subject to restrictions as set forth in subparagraphs (a)
 and (c) of the Commercial Computer Software - Restricted
 Rights clause in FAR 52.227-19.
  
 Gaussian, Inc.
 340 Quinnipiac St., Bldg. 40, Wallingford CT 06492
  
  
 ---------------------------------------------------------------
 Warning -- This program may not be used in any manner that
 competes with the business of Gaussian, Inc. or will provide
 assistance to any competitor of Gaussian, Inc.  The licensee
 of this program is prohibited from giving any competitor of
 Gaussian, Inc. access to this program.  By using this program,
 the user acknowledges that Gaussian, Inc. is engaged in the
 business of creating and licensing software in the field of
 computational chemistry and represents and warrants to the
 licensee that it is not a competitor of Gaussian, Inc. and that
 it will not use this program in any manner prohibited above.
 ---------------------------------------------------------------
  

 Cite this work as:
 Gaussian 16, Revision A.03,
 M. J. Frisch, G. W. Trucks, H. B. Schlegel, G. E. Scuseria, 
 M. A. Robb, J. R. Cheeseman, G. Scalmani, V. Barone, 
 G. A. Petersson, H. Nakatsuji, X. Li, M. Caricato, A. V. Marenich, 
 J. Bloino, B. G. Janesko, R. Gomperts, B. Mennucci, H. P. Hratchian, 
 J. V. Ortiz, A. F. Izmaylov, J. L. Sonnenberg, D. Williams-Young, 
 F. Ding, F. Lipparini, F. Egidi, J. Goings, B. Peng, A. Petrone, 
 T. Henderson, D. Ranasinghe, V. G. Zakrzewski, J. Gao, N. Rega, 
 G. Zheng, W. Liang, M. Hada, M. Ehara, K. Toyota, R. Fukuda, 
 J. Hasegawa, M. Ishida, T. Nakajima, Y. Honda, O. Kitao, H. Nakai, 
 T. Vreven, K. Throssell, J. A. Montgomery, Jr., J. E. Peralta, 
 F. Ogliaro, M. J. Bearpark, J. J. Heyd, E. N. Brothers, K. N. Kudin, 
 V. N. Staroverov, T. A. Keith, R. Kobayashi, J. Normand, 
 K. Raghavachari, A. P. Rendell, J. C. Burant, S. S. Iyengar, 
 J. Tomasi, M. Cossi, J. M. Millam, M. Klene, C. Adamo, R. Cammi, 
 J. W. Ochterski, R. L. Martin, K. Morokuma, O. Farkas, 
 J. B. Foresman, and D. J. Fox, Gaussian, Inc., Wallingford CT, 2016.
 
 ******************************************
 Gaussian 16:  ES64L-G16RevA.03 25-Dec-2016
                 4-Apr-2020 
 ******************************************
 %nprocshared=4
 Will use up to    4 processors via shared memory.
 %mem=1GB
 %oldchk=chk/acyclic_2.chk
 Copying data from "chk/acyclic_2.chk" to current chk file "/scratch/brown/finej/0051_imine_mechanism/ts_631gd/acyclic_complete/new_logs_2/Gau-245073.chk"
 IOpt=  2 FromEx=T IUOpen= 4 IOptOp= 5 NList=   0 IFRang= 0 IUIn= 4 IUOut= 2.
 ----------------------------------------------------------------------
 # freq=readfc wb97xd/6-31g(d) scrf=solvent=dichloromethane geom=check 
 temperature=263.15
 ----------------------------------------------------------------------
 1/29=2,38=1,112=263150,172=1/1;
 2/12=2,40=1/2;
 7/8=1,25=11/16;
 99/5=2/99;
 --------------
 Intermediate 1
 --------------
 Structure from the checkpoint file:  "/scratch/brown/finej/0051_imine_mechanism/ts_631gd/acyclic_complete/new_logs_2/Gau-245073.chk"
 Charge =  0 Multiplicity = 1
 Redundant internal coordinates found in file.  (old form).
 C,0,1.9957574676,-1.2491954531,-0.9175451058
 C,0,2.786797931,-2.3826942044,-0.7959511629
 C,0,3.7924540724,-2.6361024281,-1.7289515256
 C,0,4.0002116622,-1.7503552758,-2.781447035
 C,0,3.2051417705,-0.6110833685,-2.9020594392
 C,0,2.2034380398,-0.357541883,-1.970552943
 C,0,1.3678637371,0.922916896,-2.0550907954
 O,0,2.230102291,3.4373042331,0.6396537464
 O,0,3.4981915162,2.8369524159,-1.4448008523
 S,0,2.6027503698,2.4101193995,-0.3482958149
 N,0,1.2691953882,1.721721038,-0.8498609821
 C,0,-0.0525893315,0.5320217779,-2.2490062445
 N,0,-1.1431797205,0.1891672163,-2.1027798976
 C,0,-2.8372784669,1.4675396154,0.3779970734
 N,0,-2.3700546774,-0.2159366258,-1.9334378613
 C,0,-1.6136678111,-1.1870773325,0.6313470074
 C,0,-4.4095547252,-0.9397697908,-0.2802943228
 P,0,-2.7815011936,-0.1917608806,-0.3228963923
 C,0,-4.051890338,2.0233709723,0.7958829294
 C,0,-4.079411565,3.3240097471,1.2883493515
 C,0,-2.9046184262,4.0698548558,1.3590902998
 C,0,-1.696351879,3.5176865943,0.9388223131
 C,0,-1.6535984854,2.2172427974,0.4493923249
 C,0,-1.0110544799,-0.7235413642,1.8046260008
 C,0,-0.0872702818,-1.5257980651,2.4686365329
 C,0,0.2276870798,-2.7871762195,1.9715783939
 C,0,-0.3799529105,-3.2557174806,0.807031591
 C,0,-1.2949743282,-2.4578551086,0.1326659591
 C,0,-5.2880338498,-0.7562340983,-1.35355123
 C,0,-6.5657086292,-1.3005953883,-1.2911227543
 C,0,-6.9660084018,-2.0172021456,-0.1648492682
 C,0,-6.0906492049,-2.1962424413,0.9038404412
 C,0,-4.8090688818,-1.6590921891,0.8502834067
 H,0,1.2367947393,-1.0278924575,-0.1729635622
 H,0,2.6269122439,-3.0632318876,0.0351071945
 H,0,4.4163161935,-3.5196306112,-1.6301866763
 H,0,4.7855580365,-1.9392733206,-3.5072722285
 H,0,1.693015577,1.4927275249,-2.9383013064
 H,0,-4.9708622176,1.4484451086,0.7398957496
 H,0,-5.0202645454,3.7540719538,1.6160528616
 H,0,-2.9320782896,5.0849731819,1.7429920532
 H,0,-0.7748278755,4.0890268909,0.9869465672
 H,0,-0.6892431144,1.8182334562,0.1308725095
 H,0,-1.2510648247,0.2577938277,2.198618095
 H,0,0.3851900196,-1.1609787549,3.3745818378
 H,0,0.9523394381,-3.4069119206,2.4904141223
 H,0,-0.1304949705,-4.2368912477,0.4172497088
 H,0,-1.7521581401,-2.8151702921,-0.7855685637
 H,0,-4.9699985149,-0.2016549362,-2.2300830757
 H,0,-7.2487305026,-1.165533948,-2.1231807351
 H,0,-7.9647119923,-2.4400146739,-0.1210376318
 H,0,-6.4026691445,-2.7577854688,1.7780685521
 H,0,-4.1251409578,-1.8054684842,1.6811279903
 H,0,3.3775759568,0.0897607543,-3.7148266534
 C,0,3.5200221999,1.1731828347,0.5756505573
 C,0,4.7202599904,0.66911914,0.0921500446
 C,0,2.9456368942,0.6327488402,1.7247798193
 C,0,5.3395714176,-0.3873996678,0.7533592204
 H,0,5.1524263198,1.0913955552,-0.8082484325
 C,0,3.5723416855,-0.4199417634,2.3772771582
 H,0,2.0025534979,1.0237947041,2.0945509338
 C,0,4.7715714754,-0.9553894938,1.8944861136
 H,0,6.2728689964,-0.786726896,0.3643178996
 H,0,3.1198626254,-0.8424713527,3.2713582521
 C,0,5.4106750997,-2.1448801601,2.5646126721
 H,0,5.1680443607,-2.183447819,3.630897934
 H,0,5.0545969632,-3.0781955144,2.1110573519
 H,0,6.499764655,-2.1258079265,2.4608309168
 Recover connectivity data from disk.
                           ----------------------------
                           !    Current Parameters    !
                           ! (Angstroms and Degrees)  !
 --------------------------                            --------------------------
 ! Name  Definition              Value          Derivative Info.                !
 --------------------------------------------------------------------------------
 ! R1    R(1,2)                  1.3876         estimate D2E/DX2                !
 ! R2    R(1,6)                  1.3954         estimate D2E/DX2                !
 ! R3    R(1,34)                 1.086          estimate D2E/DX2                !
 ! R4    R(2,3)                  1.395          estimate D2E/DX2                !
 ! R5    R(2,35)                 1.086          estimate D2E/DX2                !
 ! R6    R(3,4)                  1.3912         estimate D2E/DX2                !
 ! R7    R(3,36)                 1.0861         estimate D2E/DX2                !
 ! R8    R(4,5)                  1.3945         estimate D2E/DX2                !
 ! R9    R(4,37)                 1.0859         estimate D2E/DX2                !
 ! R10   R(5,6)                  1.3912         estimate D2E/DX2                !
 ! R11   R(5,54)                 1.087          estimate D2E/DX2                !
 ! R12   R(6,7)                  1.5313         estimate D2E/DX2                !
 ! R13   R(7,11)                 1.4493         estimate D2E/DX2                !
 ! R14   R(7,12)                 1.486          estimate D2E/DX2                !
 ! R15   R(7,38)                 1.1002         estimate D2E/DX2                !
 ! R16   R(8,10)                 1.4731         estimate D2E/DX2                !
 ! R17   R(9,10)                 1.4786         estimate D2E/DX2                !
 ! R18   R(10,11)                1.5823         estimate D2E/DX2                !
 ! R19   R(10,55)                1.7958         estimate D2E/DX2                !
 ! R20   R(12,13)                1.1525         estimate D2E/DX2                !
 ! R21   R(13,15)                1.3031         estimate D2E/DX2                !
 ! R22   R(14,18)                1.8021         estimate D2E/DX2                !
 ! R23   R(14,19)                1.3996         estimate D2E/DX2                !
 ! R24   R(14,23)                1.4029         estimate D2E/DX2                !
 ! R25   R(15,18)                1.6624         estimate D2E/DX2                !
 ! R26   R(16,18)                1.807          estimate D2E/DX2                !
 ! R27   R(16,24)                1.3981         estimate D2E/DX2                !
 ! R28   R(16,28)                1.4018         estimate D2E/DX2                !
 ! R29   R(17,18)                1.7922         estimate D2E/DX2                !
 ! R30   R(17,29)                1.399          estimate D2E/DX2                !
 ! R31   R(17,33)                1.3983         estimate D2E/DX2                !
 ! R32   R(19,20)                1.391          estimate D2E/DX2                !
 ! R33   R(19,39)                1.0854         estimate D2E/DX2                !
 ! R34   R(20,21)                1.3934         estimate D2E/DX2                !
 ! R35   R(20,40)                1.0851         estimate D2E/DX2                !
 ! R36   R(21,22)                1.3933         estimate D2E/DX2                !
 ! R37   R(21,41)                1.0856         estimate D2E/DX2                !
 ! R38   R(22,23)                1.3902         estimate D2E/DX2                !
 ! R39   R(22,42)                1.0853         estimate D2E/DX2                !
 ! R40   R(23,43)                1.0912         estimate D2E/DX2                !
 ! R41   R(24,25)                1.3921         estimate D2E/DX2                !
 ! R42   R(24,44)                1.0844         estimate D2E/DX2                !
 ! R43   R(25,26)                1.3919         estimate D2E/DX2                !
 ! R44   R(25,45)                1.0849         estimate D2E/DX2                !
 ! R45   R(26,27)                1.3946         estimate D2E/DX2                !
 ! R46   R(26,46)                1.0855         estimate D2E/DX2                !
 ! R47   R(27,28)                1.3887         estimate D2E/DX2                !
 ! R48   R(27,47)                1.0848         estimate D2E/DX2                !
 ! R49   R(28,48)                1.0862         estimate D2E/DX2                !
 ! R50   R(29,30)                1.3902         estimate D2E/DX2                !
 ! R51   R(29,49)                1.0849         estimate D2E/DX2                !
 ! R52   R(30,31)                1.3936         estimate D2E/DX2                !
 ! R53   R(30,50)                1.0849         estimate D2E/DX2                !
 ! R54   R(31,32)                1.393          estimate D2E/DX2                !
 ! R55   R(31,51)                1.0854         estimate D2E/DX2                !
 ! R56   R(32,33)                1.3906         estimate D2E/DX2                !
 ! R57   R(32,52)                1.0849         estimate D2E/DX2                !
 ! R58   R(33,53)                1.086          estimate D2E/DX2                !
 ! R59   R(55,56)                1.3887         estimate D2E/DX2                !
 ! R60   R(55,57)                1.3937         estimate D2E/DX2                !
 ! R61   R(56,58)                1.3918         estimate D2E/DX2                !
 ! R62   R(56,59)                1.0843         estimate D2E/DX2                !
 ! R63   R(57,60)                1.388          estimate D2E/DX2                !
 ! R64   R(57,61)                1.0858         estimate D2E/DX2                !
 ! R65   R(58,62)                1.3955         estimate D2E/DX2                !
 ! R66   R(58,63)                1.0871         estimate D2E/DX2                !
 ! R67   R(60,62)                1.3993         estimate D2E/DX2                !
 ! R68   R(60,64)                1.0875         estimate D2E/DX2                !
 ! R69   R(62,65)                1.5075         estimate D2E/DX2                !
 ! R70   R(65,66)                1.0942         estimate D2E/DX2                !
 ! R71   R(65,67)                1.0971         estimate D2E/DX2                !
 ! R72   R(65,68)                1.0942         estimate D2E/DX2                !
 ! A1    A(2,1,6)              120.2179         estimate D2E/DX2                !
 ! A2    A(2,1,34)             120.3179         estimate D2E/DX2                !
 ! A3    A(6,1,34)             119.4197         estimate D2E/DX2                !
 ! A4    A(1,2,3)              120.0502         estimate D2E/DX2                !
 ! A5    A(1,2,35)             119.6725         estimate D2E/DX2                !
 ! A6    A(3,2,35)             120.2728         estimate D2E/DX2                !
 ! A7    A(2,3,4)              119.8665         estimate D2E/DX2                !
 ! A8    A(2,3,36)             120.0693         estimate D2E/DX2                !
 ! A9    A(4,3,36)             120.0629         estimate D2E/DX2                !
 ! A10   A(3,4,5)              120.029          estimate D2E/DX2                !
 ! A11   A(3,4,37)             120.1914         estimate D2E/DX2                !
 ! A12   A(5,4,37)             119.7781         estimate D2E/DX2                !
 ! A13   A(4,5,6)              120.0997         estimate D2E/DX2                !
 ! A14   A(4,5,54)             120.0653         estimate D2E/DX2                !
 ! A15   A(6,5,54)             119.827          estimate D2E/DX2                !
 ! A16   A(1,6,5)              119.7362         estimate D2E/DX2                !
 ! A17   A(1,6,7)              119.6555         estimate D2E/DX2                !
 ! A18   A(5,6,7)              120.5522         estimate D2E/DX2                !
 ! A19   A(6,7,11)             116.88           estimate D2E/DX2                !
 ! A20   A(6,7,12)             107.9895         estimate D2E/DX2                !
 ! A21   A(6,7,38)             108.4287         estimate D2E/DX2                !
 ! A22   A(11,7,12)            100.8614         estimate D2E/DX2                !
 ! A23   A(11,7,38)            113.7187         estimate D2E/DX2                !
 ! A24   A(12,7,38)            108.2997         estimate D2E/DX2                !
 ! A25   A(8,10,9)             116.6957         estimate D2E/DX2                !
 ! A26   A(8,10,11)            107.6226         estimate D2E/DX2                !
 ! A27   A(8,10,55)            105.3338         estimate D2E/DX2                !
 ! A28   A(9,10,11)            113.6344         estimate D2E/DX2                !
 ! A29   A(9,10,55)            105.7261         estimate D2E/DX2                !
 ! A30   A(11,10,55)           107.0912         estimate D2E/DX2                !
 ! A31   A(7,11,10)            116.488          estimate D2E/DX2                !
 ! A32   A(18,14,19)           120.5739         estimate D2E/DX2                !
 ! A33   A(18,14,23)           119.0588         estimate D2E/DX2                !
 ! A34   A(19,14,23)           120.317          estimate D2E/DX2                !
 ! A35   A(13,15,18)           110.7566         estimate D2E/DX2                !
 ! A36   A(18,16,24)           122.6247         estimate D2E/DX2                !
 ! A37   A(18,16,28)           117.2839         estimate D2E/DX2                !
 ! A38   A(24,16,28)           120.0732         estimate D2E/DX2                !
 ! A39   A(18,17,29)           119.8299         estimate D2E/DX2                !
 ! A40   A(18,17,33)           119.5694         estimate D2E/DX2                !
 ! A41   A(29,17,33)           120.5536         estimate D2E/DX2                !
 ! A42   A(14,18,15)           113.4429         estimate D2E/DX2                !
 ! A43   A(14,18,16)           108.7709         estimate D2E/DX2                !
 ! A44   A(14,18,17)           110.3            estimate D2E/DX2                !
 ! A45   A(15,18,16)           110.0989         estimate D2E/DX2                !
 ! A46   A(15,18,17)           103.9922         estimate D2E/DX2                !
 ! A47   A(16,18,17)           110.161          estimate D2E/DX2                !
 ! A48   A(14,19,20)           119.6176         estimate D2E/DX2                !
 ! A49   A(14,19,39)           120.5962         estimate D2E/DX2                !
 ! A50   A(20,19,39)           119.7862         estimate D2E/DX2                !
 ! A51   A(19,20,21)           120.1192         estimate D2E/DX2                !
 ! A52   A(19,20,40)           119.6456         estimate D2E/DX2                !
 ! A53   A(21,20,40)           120.2352         estimate D2E/DX2                !
 ! A54   A(20,21,22)           120.2453         estimate D2E/DX2                !
 ! A55   A(20,21,41)           119.8114         estimate D2E/DX2                !
 ! A56   A(22,21,41)           119.9433         estimate D2E/DX2                !
 ! A57   A(21,22,23)           120.2369         estimate D2E/DX2                !
 ! A58   A(21,22,42)           120.9504         estimate D2E/DX2                !
 ! A59   A(23,22,42)           118.8126         estimate D2E/DX2                !
 ! A60   A(14,23,22)           119.4631         estimate D2E/DX2                !
 ! A61   A(14,23,43)           122.3708         estimate D2E/DX2                !
 ! A62   A(22,23,43)           118.1659         estimate D2E/DX2                !
 ! A63   A(16,24,25)           119.6865         estimate D2E/DX2                !
 ! A64   A(16,24,44)           120.635          estimate D2E/DX2                !
 ! A65   A(25,24,44)           119.677          estimate D2E/DX2                !
 ! A66   A(24,25,26)           120.138          estimate D2E/DX2                !
 ! A67   A(24,25,45)           119.5707         estimate D2E/DX2                !
 ! A68   A(26,25,45)           120.2912         estimate D2E/DX2                !
 ! A69   A(25,26,27)           120.27           estimate D2E/DX2                !
 ! A70   A(25,26,46)           119.851          estimate D2E/DX2                !
 ! A71   A(27,26,46)           119.8785         estimate D2E/DX2                !
 ! A72   A(26,27,28)           119.9701         estimate D2E/DX2                !
 ! A73   A(26,27,47)           120.2453         estimate D2E/DX2                !
 ! A74   A(28,27,47)           119.7792         estimate D2E/DX2                !
 ! A75   A(16,28,27)           119.8584         estimate D2E/DX2                !
 ! A76   A(16,28,48)           120.2146         estimate D2E/DX2                !
 ! A77   A(27,28,48)           119.9227         estimate D2E/DX2                !
 ! A78   A(17,29,30)           119.4243         estimate D2E/DX2                !
 ! A79   A(17,29,49)           120.1848         estimate D2E/DX2                !
 ! A80   A(30,29,49)           120.3884         estimate D2E/DX2                !
 ! A81   A(29,30,31)           120.1068         estimate D2E/DX2                !
 ! A82   A(29,30,50)           119.6966         estimate D2E/DX2                !
 ! A83   A(31,30,50)           120.1966         estimate D2E/DX2                !
 ! A84   A(30,31,32)           120.371          estimate D2E/DX2                !
 ! A85   A(30,31,51)           119.8156         estimate D2E/DX2                !
 ! A86   A(32,31,51)           119.8132         estimate D2E/DX2                !
 ! A87   A(31,32,33)           119.9957         estimate D2E/DX2                !
 ! A88   A(31,32,52)           120.2665         estimate D2E/DX2                !
 ! A89   A(33,32,52)           119.7373         estimate D2E/DX2                !
 ! A90   A(17,33,32)           119.5481         estimate D2E/DX2                !
 ! A91   A(17,33,53)           120.5277         estimate D2E/DX2                !
 ! A92   A(32,33,53)           119.9231         estimate D2E/DX2                !
 ! A93   A(10,55,56)           120.8201         estimate D2E/DX2                !
 ! A94   A(10,55,57)           118.7361         estimate D2E/DX2                !
 ! A95   A(56,55,57)           120.1666         estimate D2E/DX2                !
 ! A96   A(55,56,58)           119.6525         estimate D2E/DX2                !
 ! A97   A(55,56,59)           119.4868         estimate D2E/DX2                !
 ! A98   A(58,56,59)           120.8489         estimate D2E/DX2                !
 ! A99   A(55,57,60)           119.7085         estimate D2E/DX2                !
 ! A100  A(55,57,61)           119.9383         estimate D2E/DX2                !
 ! A101  A(60,57,61)           120.3435         estimate D2E/DX2                !
 ! A102  A(56,58,62)           121.0877         estimate D2E/DX2                !
 ! A103  A(56,58,63)           119.3962         estimate D2E/DX2                !
 ! A104  A(62,58,63)           119.5084         estimate D2E/DX2                !
 ! A105  A(57,60,62)           120.9957         estimate D2E/DX2                !
 ! A106  A(57,60,64)           119.5566         estimate D2E/DX2                !
 ! A107  A(62,60,64)           119.4446         estimate D2E/DX2                !
 ! A108  A(58,62,60)           118.3741         estimate D2E/DX2                !
 ! A109  A(58,62,65)           120.8048         estimate D2E/DX2                !
 ! A110  A(60,62,65)           120.792          estimate D2E/DX2                !
 ! A111  A(62,65,66)           111.5305         estimate D2E/DX2                !
 ! A112  A(62,65,67)           110.4811         estimate D2E/DX2                !
 ! A113  A(62,65,68)           111.4734         estimate D2E/DX2                !
 ! A114  A(66,65,67)           107.5123         estimate D2E/DX2                !
 ! A115  A(66,65,68)           108.2851         estimate D2E/DX2                !
 ! A116  A(67,65,68)           107.3779         estimate D2E/DX2                !
 ! A117  L(7,12,13,22,-1)      171.2697         estimate D2E/DX2                !
 ! A118  L(12,13,15,21,-1)     180.5261         estimate D2E/DX2                !
 ! A119  L(7,12,13,22,-2)      192.2729         estimate D2E/DX2                !
 ! A120  L(12,13,15,21,-2)     180.6558         estimate D2E/DX2                !
 ! D1    D(6,1,2,3)             -0.1103         estimate D2E/DX2                !
 ! D2    D(6,1,2,35)           179.1197         estimate D2E/DX2                !
 ! D3    D(34,1,2,3)          -177.6699         estimate D2E/DX2                !
 ! D4    D(34,1,2,35)            1.5602         estimate D2E/DX2                !
 ! D5    D(2,1,6,5)              0.1953         estimate D2E/DX2                !
 ! D6    D(2,1,6,7)           -177.0995         estimate D2E/DX2                !
 ! D7    D(34,1,6,5)           177.7767         estimate D2E/DX2                !
 ! D8    D(34,1,6,7)             0.4819         estimate D2E/DX2                !
 ! D9    D(1,2,3,4)             -0.0177         estimate D2E/DX2                !
 ! D10   D(1,2,3,36)           179.5759         estimate D2E/DX2                !
 ! D11   D(35,2,3,4)          -179.2431         estimate D2E/DX2                !
 ! D12   D(35,2,3,36)            0.3505         estimate D2E/DX2                !
 ! D13   D(2,3,4,5)              0.0603         estimate D2E/DX2                !
 ! D14   D(2,3,4,37)           179.6233         estimate D2E/DX2                !
 ! D15   D(36,3,4,5)          -179.5333         estimate D2E/DX2                !
 ! D16   D(36,3,4,37)            0.0297         estimate D2E/DX2                !
 ! D17   D(3,4,5,6)              0.0252         estimate D2E/DX2                !
 ! D18   D(3,4,5,54)           178.9983         estimate D2E/DX2                !
 ! D19   D(37,4,5,6)          -179.5397         estimate D2E/DX2                !
 ! D20   D(37,4,5,54)           -0.5665         estimate D2E/DX2                !
 ! D21   D(4,5,6,1)             -0.1524         estimate D2E/DX2                !
 ! D22   D(4,5,6,7)            177.1177         estimate D2E/DX2                !
 ! D23   D(54,5,6,1)          -179.128          estimate D2E/DX2                !
 ! D24   D(54,5,6,7)            -1.8579         estimate D2E/DX2                !
 ! D25   D(1,6,7,11)            48.9337         estimate D2E/DX2                !
 ! D26   D(1,6,7,12)           -63.8166         estimate D2E/DX2                !
 ! D27   D(1,6,7,38)           179.0431         estimate D2E/DX2                !
 ! D28   D(5,6,7,11)          -128.3386         estimate D2E/DX2                !
 ! D29   D(5,6,7,12)           118.9111         estimate D2E/DX2                !
 ! D30   D(5,6,7,38)             1.7708         estimate D2E/DX2                !
 ! D31   D(6,7,11,10)           66.7421         estimate D2E/DX2                !
 ! D32   D(12,7,11,10)        -176.5253         estimate D2E/DX2                !
 ! D33   D(38,7,11,10)         -60.8346         estimate D2E/DX2                !
 ! D34   D(6,7,15,18)           91.3072         estimate D2E/DX2                !
 ! D35   D(11,7,15,18)         -28.1426         estimate D2E/DX2                !
 ! D36   D(38,7,15,18)        -147.4626         estimate D2E/DX2                !
 ! D37   D(8,10,11,7)          165.0764         estimate D2E/DX2                !
 ! D38   D(9,10,11,7)           34.2677         estimate D2E/DX2                !
 ! D39   D(55,10,11,7)         -82.0966         estimate D2E/DX2                !
 ! D40   D(8,10,55,56)        -133.4682         estimate D2E/DX2                !
 ! D41   D(8,10,55,57)          52.5701         estimate D2E/DX2                !
 ! D42   D(9,10,55,56)          -9.3322         estimate D2E/DX2                !
 ! D43   D(9,10,55,57)         176.706          estimate D2E/DX2                !
 ! D44   D(11,10,55,56)        112.1551         estimate D2E/DX2                !
 ! D45   D(11,10,55,57)        -61.8066         estimate D2E/DX2                !
 ! D46   D(19,14,18,15)        112.9067         estimate D2E/DX2                !
 ! D47   D(19,14,18,16)       -124.207          estimate D2E/DX2                !
 ! D48   D(19,14,18,17)         -3.2865         estimate D2E/DX2                !
 ! D49   D(23,14,18,15)        -64.5224         estimate D2E/DX2                !
 ! D50   D(23,14,18,16)         58.3639         estimate D2E/DX2                !
 ! D51   D(23,14,18,17)        179.2844         estimate D2E/DX2                !
 ! D52   D(18,14,19,20)       -177.642          estimate D2E/DX2                !
 ! D53   D(18,14,19,39)          2.4219         estimate D2E/DX2                !
 ! D54   D(23,14,19,20)         -0.2453         estimate D2E/DX2                !
 ! D55   D(23,14,19,39)        179.8186         estimate D2E/DX2                !
 ! D56   D(18,14,23,22)        177.4347         estimate D2E/DX2                !
 ! D57   D(18,14,23,43)         -2.4254         estimate D2E/DX2                !
 ! D58   D(19,14,23,22)         -0.0012         estimate D2E/DX2                !
 ! D59   D(19,14,23,43)       -179.8612         estimate D2E/DX2                !
 ! D60   D(13,15,18,14)         66.1016         estimate D2E/DX2                !
 ! D61   D(13,15,18,16)        -56.0498         estimate D2E/DX2                !
 ! D62   D(13,15,18,17)       -174.0462         estimate D2E/DX2                !
 ! D63   D(24,16,18,14)          6.799          estimate D2E/DX2                !
 ! D64   D(24,16,18,15)        131.6746         estimate D2E/DX2                !
 ! D65   D(24,16,18,17)       -114.2067         estimate D2E/DX2                !
 ! D66   D(28,16,18,14)       -171.6505         estimate D2E/DX2                !
 ! D67   D(28,16,18,15)        -46.7749         estimate D2E/DX2                !
 ! D68   D(28,16,18,17)         67.3437         estimate D2E/DX2                !
 ! D69   D(18,16,24,25)       -177.9564         estimate D2E/DX2                !
 ! D70   D(18,16,24,44)          1.6085         estimate D2E/DX2                !
 ! D71   D(28,16,24,25)          0.4513         estimate D2E/DX2                !
 ! D72   D(28,16,24,44)       -179.9838         estimate D2E/DX2                !
 ! D73   D(18,16,28,27)        178.5298         estimate D2E/DX2                !
 ! D74   D(18,16,28,48)         -0.7219         estimate D2E/DX2                !
 ! D75   D(24,16,28,27)          0.0387         estimate D2E/DX2                !
 ! D76   D(24,16,28,48)       -179.213          estimate D2E/DX2                !
 ! D77   D(29,17,18,14)         88.9832         estimate D2E/DX2                !
 ! D78   D(29,17,18,15)        -32.9768         estimate D2E/DX2                !
 ! D79   D(29,17,18,16)       -150.9304         estimate D2E/DX2                !
 ! D80   D(33,17,18,14)        -88.5352         estimate D2E/DX2                !
 ! D81   D(33,17,18,15)        149.5048         estimate D2E/DX2                !
 ! D82   D(33,17,18,16)         31.5512         estimate D2E/DX2                !
 ! D83   D(18,17,29,30)       -177.7399         estimate D2E/DX2                !
 ! D84   D(18,17,29,49)          2.8365         estimate D2E/DX2                !
 ! D85   D(33,17,29,30)         -0.2463         estimate D2E/DX2                !
 ! D86   D(33,17,29,49)       -179.6699         estimate D2E/DX2                !
 ! D87   D(18,17,33,32)        177.5723         estimate D2E/DX2                !
 ! D88   D(18,17,33,53)         -2.8013         estimate D2E/DX2                !
 ! D89   D(29,17,33,32)          0.0722         estimate D2E/DX2                !
 ! D90   D(29,17,33,53)        179.6986         estimate D2E/DX2                !
 ! D91   D(14,19,20,21)          0.279          estimate D2E/DX2                !
 ! D92   D(14,19,20,40)       -179.7648         estimate D2E/DX2                !
 ! D93   D(39,19,20,21)       -179.7843         estimate D2E/DX2                !
 ! D94   D(39,19,20,40)          0.1719         estimate D2E/DX2                !
 ! D95   D(19,20,21,22)         -0.0673         estimate D2E/DX2                !
 ! D96   D(19,20,21,41)        179.9146         estimate D2E/DX2                !
 ! D97   D(40,20,21,22)        179.9767         estimate D2E/DX2                !
 ! D98   D(40,20,21,41)         -0.0413         estimate D2E/DX2                !
 ! D99   D(20,21,22,23)         -0.1821         estimate D2E/DX2                !
 ! D100  D(20,21,22,42)        179.8725         estimate D2E/DX2                !
 ! D101  D(41,21,22,23)        179.836          estimate D2E/DX2                !
 ! D102  D(41,21,22,42)         -0.1094         estimate D2E/DX2                !
 ! D103  D(21,22,23,14)          0.2146         estimate D2E/DX2                !
 ! D104  D(21,22,23,43)       -179.9194         estimate D2E/DX2                !
 ! D105  D(42,22,23,14)       -179.8388         estimate D2E/DX2                !
 ! D106  D(42,22,23,43)          0.0272         estimate D2E/DX2                !
 ! D107  D(16,24,25,26)         -0.4469         estimate D2E/DX2                !
 ! D108  D(16,24,25,45)        179.5097         estimate D2E/DX2                !
 ! D109  D(44,24,25,26)        179.984          estimate D2E/DX2                !
 ! D110  D(44,24,25,45)         -0.0594         estimate D2E/DX2                !
 ! D111  D(24,25,26,27)         -0.047          estimate D2E/DX2                !
 ! D112  D(24,25,26,46)        179.6997         estimate D2E/DX2                !
 ! D113  D(45,25,26,27)        179.9968         estimate D2E/DX2                !
 ! D114  D(45,25,26,46)         -0.2565         estimate D2E/DX2                !
 ! D115  D(25,26,27,28)          0.5401         estimate D2E/DX2                !
 ! D116  D(25,26,27,47)        179.694          estimate D2E/DX2                !
 ! D117  D(46,26,27,28)       -179.2065         estimate D2E/DX2                !
 ! D118  D(46,26,27,47)         -0.0526         estimate D2E/DX2                !
 ! D119  D(26,27,28,16)         -0.5332         estimate D2E/DX2                !
 ! D120  D(26,27,28,48)        178.7207         estimate D2E/DX2                !
 ! D121  D(47,27,28,16)       -179.6911         estimate D2E/DX2                !
 ! D122  D(47,27,28,48)         -0.4372         estimate D2E/DX2                !
 ! D123  D(17,29,30,31)          0.2812         estimate D2E/DX2                !
 ! D124  D(17,29,30,50)       -179.6706         estimate D2E/DX2                !
 ! D125  D(49,29,30,31)        179.7036         estimate D2E/DX2                !
 ! D126  D(49,29,30,50)         -0.2482         estimate D2E/DX2                !
 ! D127  D(29,30,31,32)         -0.1446         estimate D2E/DX2                !
 ! D128  D(29,30,31,51)        179.9881         estimate D2E/DX2                !
 ! D129  D(50,30,31,32)        179.807          estimate D2E/DX2                !
 ! D130  D(50,30,31,51)         -0.0603         estimate D2E/DX2                !
 ! D131  D(30,31,32,33)         -0.0317         estimate D2E/DX2                !
 ! D132  D(30,31,32,52)       -179.7531         estimate D2E/DX2                !
 ! D133  D(51,31,32,33)        179.8357         estimate D2E/DX2                !
 ! D134  D(51,31,32,52)          0.1142         estimate D2E/DX2                !
 ! D135  D(31,32,33,17)          0.0672         estimate D2E/DX2                !
 ! D136  D(31,32,33,53)       -179.5615         estimate D2E/DX2                !
 ! D137  D(52,32,33,17)        179.7901         estimate D2E/DX2                !
 ! D138  D(52,32,33,53)          0.1614         estimate D2E/DX2                !
 ! D139  D(10,55,56,58)       -173.2278         estimate D2E/DX2                !
 ! D140  D(10,55,56,59)          5.5316         estimate D2E/DX2                !
 ! D141  D(57,55,56,58)          0.6479         estimate D2E/DX2                !
 ! D142  D(57,55,56,59)        179.4073         estimate D2E/DX2                !
 ! D143  D(10,55,57,60)        173.4164         estimate D2E/DX2                !
 ! D144  D(10,55,57,61)         -5.4503         estimate D2E/DX2                !
 ! D145  D(56,55,57,60)         -0.5859         estimate D2E/DX2                !
 ! D146  D(56,55,57,61)       -179.4526         estimate D2E/DX2                !
 ! D147  D(55,56,58,62)          0.271          estimate D2E/DX2                !
 ! D148  D(55,56,58,63)        179.2597         estimate D2E/DX2                !
 ! D149  D(59,56,58,62)       -178.4711         estimate D2E/DX2                !
 ! D150  D(59,56,58,63)          0.5176         estimate D2E/DX2                !
 ! D151  D(55,57,60,62)         -0.396          estimate D2E/DX2                !
 ! D152  D(55,57,60,64)       -179.747          estimate D2E/DX2                !
 ! D153  D(61,57,60,62)        178.4661         estimate D2E/DX2                !
 ! D154  D(61,57,60,64)         -0.8849         estimate D2E/DX2                !
 ! D155  D(56,58,62,60)         -1.2206         estimate D2E/DX2                !
 ! D156  D(56,58,62,65)        176.8324         estimate D2E/DX2                !
 ! D157  D(63,58,62,60)        179.7918         estimate D2E/DX2                !
 ! D158  D(63,58,62,65)         -2.1552         estimate D2E/DX2                !
 ! D159  D(57,60,62,58)          1.283          estimate D2E/DX2                !
 ! D160  D(57,60,62,65)       -176.7703         estimate D2E/DX2                !
 ! D161  D(64,60,62,58)       -179.3654         estimate D2E/DX2                !
 ! D162  D(64,60,62,65)          2.5813         estimate D2E/DX2                !
 ! D163  D(58,62,65,66)        153.2537         estimate D2E/DX2                !
 ! D164  D(58,62,65,67)        -87.2301         estimate D2E/DX2                !
 ! D165  D(58,62,65,68)         32.0801         estimate D2E/DX2                !
 ! D166  D(60,62,65,66)        -28.7405         estimate D2E/DX2                !
 ! D167  D(60,62,65,67)         90.7758         estimate D2E/DX2                !
 ! D168  D(60,62,65,68)       -149.9141         estimate D2E/DX2                !
 --------------------------------------------------------------------------------
 Stoichiometry    C33H28N3O2PS
 Framework group  C1[X(C33H28N3O2PS)]
 Deg. of freedom   198
 Full point group                 C1      NOp   1
 Largest Abelian subgroup         C1      NOp   1
 Largest concise Abelian subgroup C1      NOp   1
                         Standard orientation:                         
 ---------------------------------------------------------------------
 Center     Atomic      Atomic             Coordinates (Angstroms)
 Number     Number       Type             X           Y           Z
 ---------------------------------------------------------------------
      1          6           0       -1.981181   -1.275744    0.921162
      2          6           0       -2.751988   -2.423962    0.808023
      3          6           0       -3.756994   -2.685263    1.739545
      4          6           0       -3.984425   -1.792594    2.782078
      5          6           0       -3.209685   -0.638543    2.894192
      6          6           0       -2.208640   -0.377162    1.964146
      7          6           0       -1.395692    0.918382    2.038904
      8          8           0       -2.290036    3.389912   -0.684868
      9          8           0       -3.556237    2.788897    1.400544
     10         16           0       -2.648983    2.366522    0.312052
     11          7           0       -1.305827    1.706479    0.825962
     12          6           0        0.030487    0.554160    2.242484
     13          7           0        1.127443    0.228793    2.104133
     14          6           0        2.809514    1.511045   -0.382819
     15          7           0        2.361836   -0.156685    1.943849
     16          6           0        1.633058   -1.166822   -0.613858
     17          6           0        4.420424   -0.861829    0.306362
     18         15           0        2.779516   -0.141759    0.334800
     19          6           0        4.016064    2.083569   -0.801520
     20          6           0        4.023144    3.379414   -1.307165
     21          6           0        2.835934    4.104025   -1.390231
     22          6           0        1.635654    3.535298   -0.969160
     23          6           0        1.613354    2.239353   -0.466614
     24          6           0        1.027418   -0.725757   -1.794219
     25          6           0        0.120422   -1.550617   -2.453664
     26          6           0       -0.174746   -2.812146   -1.944977
     27          6           0        0.436043   -3.258217   -0.773276
     28          6           0        1.334311   -2.437797   -0.103467
     29          6           0        5.291115   -0.652189    1.381184
     30          6           0        6.578261   -1.174928    1.329436
     31          6           0        6.995587   -1.895904    0.212167
     32          6           0        6.127919   -2.100950   -0.858121
     33          6           0        4.837029   -1.585578   -0.815186
     34          1           0       -1.223060   -1.048901    0.177390
     35          1           0       -2.576894   -3.110042   -0.015378
     36          1           0       -4.365067   -3.580432    1.647342
     37          1           0       -4.769408   -1.987706    3.506657
     38          1           0       -1.734330    1.491423    2.914928
     39          1           0        4.944599    1.525258   -0.735979
     40          1           0        4.957778    3.822366   -1.635495
     41          1           0        2.847436    5.115511   -1.784395
     42          1           0        0.704597    4.090060   -1.026812
     43          1           0        0.654723    1.826947   -0.147879
     44          1           0        1.252063    0.255534   -2.197277
     45          1           0       -0.354494   -1.203274   -3.365177
     46          1           0       -0.886403   -3.449593   -2.460330
     47          1           0        0.201966   -4.239553   -0.374467
     48          1           0        1.793771   -2.777777    0.820197
     49          1           0        4.959884   -0.094321    2.250714
     50          1           0        7.255369   -1.019592    2.162788
     51          1           0        8.001626   -2.301765    0.176676
     52          1           0        6.453246   -2.665861   -1.725300
     53          1           0        4.159206   -1.752229   -1.647213
     54          1           0       -3.397601    0.067435    3.699045
     55          6           0       -3.540867    1.104539   -0.602836
     56          6           0       -4.734214    0.584689   -0.118997
     57          6           0       -2.952434    0.562485   -1.744068
     58          6           0       -5.332400   -0.489076   -0.771821
     59          1           0       -5.177370    1.008545    0.775297
     60          6           0       -3.558115   -0.507492   -2.388249
     61          1           0       -2.014720    0.966039   -2.114054
     62          6           0       -4.749909   -1.058710   -1.904794
     63          1           0       -6.260267   -0.900544   -0.382441
     64          1           0       -3.094672   -0.931185   -3.276143
     65          6           0       -5.365548   -2.265853   -2.565252
     66          1           0       -5.117841   -2.311050   -3.630109
     67          1           0       -4.995278   -3.188195   -2.100745
     68          1           0       -6.455228   -2.264608   -2.466022
 ---------------------------------------------------------------------
 Rotational constants (GHZ):           0.1483487           0.0626550           0.0561281
 Electric field and nuclear coordinate derivatives read from checkpoint file.
 Rotating derivatives to standard orientation.
 Full mass-weighted force constant matrix:
 Low frequencies ---   -4.8544   -0.0215   -0.0052    0.0209    5.8174   11.9044
 Low frequencies ---   16.4115   24.5480   29.4792
 Diagonal vibrational polarizability:
      254.2135588     169.1924766     273.0671814
 Harmonic frequencies (cm**-1), IR intensities (KM/Mole), Raman scattering
 activities (A**4/AMU), depolarization ratios for plane and unpolarized
 incident light, reduced masses (AMU), force constants (mDyne/A),
 and normal coordinates:
                      1                      2                      3
                      A                      A                      A
 Frequencies --     15.8719                24.4111                29.4452
 Red. masses --      5.8712                 5.4069                 3.7967
 Frc consts  --      0.0009                 0.0019                 0.0019
 IR Inten    --      2.2941                 0.3946                 0.1929
  Atom  AN      X      Y      Z        X      Y      Z        X      Y      Z
     1   6    -0.00  -0.01  -0.01     0.02   0.03   0.09    -0.01  -0.00   0.02
     2   6     0.02  -0.03   0.03     0.02   0.02   0.12    -0.02   0.00   0.03
     3   6     0.04  -0.03   0.05     0.01   0.05   0.11    -0.02   0.02   0.02
     4   6     0.05  -0.01   0.04    -0.00   0.09   0.08    -0.02   0.03   0.01
     5   6     0.03   0.00   0.01    -0.00   0.09   0.05    -0.01   0.03   0.01
     6   6     0.00   0.00  -0.02     0.01   0.06   0.06    -0.01   0.01   0.01
     7   6    -0.01   0.01  -0.06     0.01   0.06   0.03     0.00   0.01  -0.00
     8   8     0.03  -0.07  -0.15    -0.05   0.01   0.01     0.01  -0.01  -0.02
     9   8     0.04   0.05  -0.10    -0.07  -0.05  -0.01     0.01   0.01  -0.02
    10  16     0.01  -0.02  -0.10    -0.02  -0.01   0.00     0.01  -0.00  -0.01
    11   7     0.00  -0.03  -0.09    -0.01   0.05   0.03     0.00  -0.00  -0.01
    12   6    -0.01   0.03  -0.03     0.01   0.05   0.02     0.00   0.00   0.00
    13   7    -0.01   0.01  -0.01     0.00   0.02   0.01     0.00   0.00   0.01
    14   6     0.04   0.03   0.04    -0.02   0.00   0.01    -0.00  -0.01  -0.00
    15   7    -0.01  -0.01  -0.00    -0.01  -0.02  -0.01     0.00   0.00   0.01
    16   6    -0.00   0.05  -0.03    -0.05   0.02  -0.01    -0.00  -0.01   0.02
    17   6    -0.01  -0.01   0.01    -0.04  -0.03  -0.04     0.00   0.00  -0.00
    18  15     0.00   0.02   0.00    -0.03  -0.00  -0.01    -0.00  -0.00   0.01
    19   6     0.06   0.03   0.09    -0.01   0.02   0.05    -0.00  -0.00   0.01
    20   6     0.09   0.04   0.13    -0.00   0.03   0.09    -0.00  -0.01   0.01
    21   6     0.10   0.07   0.13    -0.00   0.03   0.08    -0.00  -0.01  -0.01
    22   6     0.09   0.07   0.09    -0.01   0.01   0.04    -0.01  -0.02  -0.02
    23   6     0.06   0.06   0.05    -0.02   0.00   0.00    -0.01  -0.01  -0.02
    24   6    -0.01   0.10  -0.01     0.01   0.02  -0.04    -0.01  -0.02   0.02
    25   6    -0.02   0.13  -0.03     0.01   0.03  -0.06    -0.01  -0.03   0.03
    26   6    -0.02   0.11  -0.08    -0.06   0.06  -0.04     0.00  -0.03   0.04
    27   6    -0.02   0.07  -0.10    -0.11   0.06  -0.01     0.01  -0.02   0.04
    28   6    -0.01   0.04  -0.07    -0.11   0.04   0.00     0.01  -0.01   0.03
    29   6    -0.02  -0.06   0.02    -0.02  -0.04  -0.05    -0.06  -0.19   0.09
    30   6    -0.03  -0.08   0.03    -0.03  -0.07  -0.07    -0.06  -0.18   0.07
    31   6    -0.03  -0.06   0.01    -0.06  -0.07  -0.08     0.01   0.04  -0.05
    32   6    -0.02  -0.02  -0.00    -0.08  -0.06  -0.07     0.08   0.23  -0.14
    33   6    -0.01   0.00  -0.01    -0.07  -0.03  -0.05     0.07   0.21  -0.11
    34   1    -0.02  -0.01  -0.03     0.04  -0.00   0.09    -0.00  -0.02   0.02
    35   1     0.01  -0.04   0.03     0.03  -0.00   0.14    -0.02  -0.01   0.03
    36   1     0.06  -0.04   0.08     0.01   0.05   0.13    -0.03   0.02   0.03
    37   1     0.07  -0.02   0.07    -0.01   0.11   0.08    -0.03   0.04   0.01
    38   1    -0.02   0.05  -0.09     0.02   0.07   0.04     0.01   0.01  -0.00
    39   1     0.05   0.01   0.08    -0.01   0.02   0.06     0.00   0.00   0.03
    40   1     0.10   0.04   0.16     0.00   0.04   0.12     0.00  -0.00   0.02
    41   1     0.13   0.08   0.16     0.00   0.04   0.10    -0.00  -0.01  -0.02
    42   1     0.10   0.09   0.09    -0.01   0.01   0.03    -0.01  -0.02  -0.04
    43   1     0.04   0.06   0.01    -0.02  -0.01  -0.03    -0.01  -0.02  -0.02
    44   1    -0.01   0.11   0.02     0.06  -0.00  -0.06    -0.01  -0.03   0.01
    45   1    -0.03   0.17  -0.02     0.06   0.03  -0.09    -0.01  -0.04   0.03
    46   1    -0.03   0.14  -0.09    -0.06   0.07  -0.05     0.00  -0.04   0.05
    47   1    -0.02   0.05  -0.13    -0.16   0.08   0.00     0.01  -0.02   0.05
    48   1    -0.00   0.00  -0.09    -0.15   0.05   0.03     0.01   0.00   0.03
    49   1    -0.02  -0.07   0.03     0.01  -0.04  -0.04    -0.12  -0.35   0.17
    50   1    -0.04  -0.11   0.04    -0.01  -0.08  -0.08    -0.11  -0.33   0.13
    51   1    -0.04  -0.08   0.02    -0.06  -0.09  -0.10     0.02   0.05  -0.07
    52   1    -0.02  -0.01  -0.01    -0.10  -0.06  -0.07     0.13   0.40  -0.22
    53   1    -0.00   0.04  -0.02    -0.08  -0.02  -0.03     0.12   0.36  -0.18
    54   1     0.04   0.01  -0.00    -0.01   0.12   0.03    -0.01   0.04  -0.00
    55   6    -0.04  -0.03  -0.03     0.05  -0.04  -0.02     0.01  -0.00  -0.01
    56   6    -0.01  -0.03   0.04     0.04  -0.07  -0.06     0.00   0.01  -0.01
    57   6    -0.09  -0.06  -0.04     0.11  -0.03   0.00     0.01  -0.01  -0.00
    58   6    -0.03  -0.05   0.11     0.10  -0.09  -0.08    -0.00   0.01  -0.01
    59   1     0.03   0.00   0.05     0.00  -0.08  -0.08    -0.00   0.01  -0.02
    60   6    -0.11  -0.09   0.02     0.16  -0.05  -0.01     0.01  -0.01  -0.00
    61   1    -0.11  -0.07  -0.10     0.11  -0.00   0.04     0.02  -0.02   0.00
    62   6    -0.08  -0.09   0.10     0.16  -0.08  -0.06    -0.00  -0.00  -0.01
    63   1    -0.01  -0.05   0.16     0.10  -0.12  -0.11    -0.01   0.02  -0.02
    64   1    -0.15  -0.12   0.01     0.20  -0.03   0.00     0.01  -0.02   0.00
    65   6    -0.10  -0.12   0.17     0.22  -0.10  -0.08    -0.01   0.00  -0.01
    66   1    -0.18  -0.14   0.15     0.28  -0.11  -0.06    -0.00  -0.00  -0.01
    67   1    -0.04  -0.10   0.17     0.21  -0.09  -0.04    -0.02   0.00  -0.00
    68   1    -0.09  -0.14   0.25     0.21  -0.12  -0.14    -0.01   0.01  -0.01
                      4                      5                      6
                      A                      A                      A
 Frequencies --     34.6672                41.7603                45.1891
 Red. masses --      5.5482                 5.7156                 2.2161
 Frc consts  --      0.0039                 0.0059                 0.0027
 IR Inten    --      2.3488                 1.0757                 1.9777
  Atom  AN      X      Y      Z        X      Y      Z        X      Y      Z
     1   6     0.05   0.06  -0.05     0.02   0.04  -0.00    -0.02  -0.02   0.01
     2   6     0.10   0.03  -0.07     0.01   0.04   0.00    -0.03  -0.01  -0.01
     3   6     0.14  -0.05  -0.05    -0.01   0.07  -0.01    -0.06  -0.00  -0.03
     4   6     0.11  -0.08  -0.03    -0.02   0.08  -0.02    -0.07   0.00  -0.04
     5   6     0.05  -0.05  -0.02    -0.01   0.08  -0.03    -0.06  -0.00  -0.02
     6   6     0.03   0.02  -0.03     0.01   0.06  -0.02    -0.03  -0.02   0.00
     7   6    -0.02   0.05   0.00     0.01   0.05  -0.03    -0.02  -0.03   0.02
     8   8    -0.08   0.09   0.05    -0.05   0.05  -0.01     0.07  -0.01   0.00
     9   8    -0.06   0.03   0.05    -0.02   0.05   0.01     0.02   0.03  -0.01
    10  16    -0.05   0.06   0.04    -0.03   0.05  -0.00     0.03   0.01   0.01
    11   7    -0.04   0.08   0.02    -0.01   0.07  -0.02     0.01  -0.02   0.03
    12   6    -0.02   0.07  -0.00     0.01   0.03  -0.05    -0.02  -0.05   0.03
    13   7    -0.03   0.04  -0.02    -0.01  -0.04  -0.06    -0.02  -0.03   0.02
    14   6    -0.02  -0.00  -0.03    -0.02  -0.07  -0.01    -0.00  -0.00   0.01
    15   7    -0.04   0.01  -0.02    -0.03  -0.11  -0.05    -0.02  -0.02   0.01
    16   6    -0.00  -0.00  -0.04     0.03  -0.10  -0.07    -0.01   0.01  -0.01
    17   6    -0.03  -0.01   0.03     0.02  -0.03  -0.01    -0.01   0.00   0.01
    18  15    -0.02   0.00  -0.02    -0.00  -0.09  -0.04    -0.01  -0.01   0.01
    19   6    -0.02  -0.02  -0.06    -0.01   0.00   0.13    -0.01  -0.04  -0.04
    20   6    -0.02  -0.03  -0.09    -0.02   0.03   0.21    -0.00  -0.05  -0.08
    21   6    -0.02  -0.03  -0.10    -0.04  -0.01   0.15     0.01  -0.03  -0.05
    22   6    -0.01  -0.01  -0.06    -0.05  -0.08   0.02     0.01   0.00   0.00
    23   6    -0.02   0.00  -0.03    -0.05  -0.11  -0.06     0.01   0.01   0.03
    24   6    -0.00   0.01  -0.04     0.06  -0.11  -0.09     0.00   0.03  -0.01
    25   6     0.02   0.01  -0.06     0.06  -0.10  -0.09     0.00   0.05  -0.03
    26   6     0.05  -0.01  -0.10     0.02  -0.09  -0.07    -0.02   0.05  -0.05
    27   6     0.05  -0.02  -0.10    -0.01  -0.08  -0.06    -0.04   0.03  -0.05
    28   6     0.02  -0.02  -0.07    -0.01  -0.08  -0.05    -0.03   0.01  -0.03
    29   6    -0.08  -0.08   0.08     0.00   0.04  -0.01    -0.01   0.02   0.01
    30   6    -0.10  -0.13   0.14     0.04   0.12   0.00     0.00   0.05   0.00
    31   6    -0.06  -0.11   0.14     0.09   0.14   0.01     0.01   0.06  -0.00
    32   6    -0.01  -0.04   0.08     0.11   0.06   0.01     0.01   0.05   0.00
    33   6     0.01   0.01   0.02     0.07  -0.02  -0.00     0.00   0.02   0.01
    34   1     0.03   0.12  -0.06     0.03   0.02   0.01     0.00  -0.03   0.03
    35   1     0.12   0.05  -0.09     0.02   0.03   0.02    -0.02  -0.02  -0.00
    36   1     0.18  -0.08  -0.06    -0.01   0.07  -0.00    -0.06   0.01  -0.04
    37   1     0.13  -0.14  -0.02    -0.03   0.10  -0.03    -0.09   0.02  -0.06
    38   1    -0.04   0.02   0.01     0.03   0.05  -0.01    -0.02  -0.03   0.02
    39   1    -0.02  -0.03  -0.06     0.01   0.04   0.17    -0.01  -0.05  -0.06
    40   1    -0.02  -0.05  -0.12    -0.01   0.09   0.31    -0.01  -0.07  -0.12
    41   1    -0.02  -0.04  -0.12    -0.05   0.02   0.22     0.01  -0.04  -0.08
    42   1    -0.01  -0.01  -0.06    -0.07  -0.11  -0.02     0.02   0.01   0.02
    43   1    -0.02   0.02  -0.01    -0.05  -0.16  -0.15     0.01   0.03   0.07
    44   1    -0.02   0.02  -0.02     0.09  -0.12  -0.11     0.02   0.03   0.00
    45   1     0.02   0.02  -0.06     0.08  -0.11  -0.11     0.02   0.07  -0.03
    46   1     0.07  -0.02  -0.12     0.01  -0.08  -0.08    -0.02   0.06  -0.06
    47   1     0.07  -0.04  -0.13    -0.04  -0.07  -0.04    -0.05   0.02  -0.06
    48   1     0.02  -0.03  -0.08    -0.04  -0.07  -0.03    -0.05  -0.01  -0.03
    49   1    -0.11  -0.11   0.08    -0.04   0.03  -0.02    -0.02   0.01   0.01
    50   1    -0.14  -0.19   0.18     0.03   0.18   0.00    -0.00   0.06   0.00
    51   1    -0.08  -0.15   0.18     0.12   0.20   0.02     0.02   0.08  -0.01
    52   1     0.02  -0.02   0.08     0.15   0.07   0.02     0.02   0.06  -0.00
    53   1     0.05   0.06  -0.02     0.09  -0.07  -0.00     0.00   0.01   0.01
    54   1     0.04  -0.08   0.01    -0.02   0.10  -0.05    -0.07  -0.00  -0.03
    55   6    -0.03   0.05   0.03    -0.02   0.04   0.02     0.03   0.01   0.00
    56   6     0.01  -0.01   0.06    -0.03   0.05   0.02     0.02   0.02   0.01
    57   6    -0.02   0.08   0.02    -0.01   0.00   0.04     0.03  -0.01   0.02
    58   6     0.06  -0.05   0.08    -0.02   0.03   0.04     0.03   0.00   0.03
    59   1     0.01  -0.04   0.07    -0.04   0.08   0.00     0.01   0.04  -0.00
    60   6     0.02   0.05   0.03    -0.00  -0.02   0.06     0.04  -0.03   0.04
    61   1    -0.05   0.13  -0.00    -0.00  -0.01   0.04     0.03  -0.01   0.02
    62   6     0.07  -0.02   0.07    -0.01  -0.00   0.07     0.05  -0.02   0.04
    63   1     0.09  -0.10   0.10    -0.03   0.04   0.05     0.03   0.00   0.03
    64   1     0.02   0.07   0.03     0.01  -0.05   0.09     0.05  -0.04   0.05
    65   6     0.13  -0.07   0.10     0.01  -0.03   0.11     0.05  -0.05   0.09
    66   1     0.10  -0.07   0.09     0.05  -0.10   0.13     0.44  -0.34   0.19
    67   1     0.21  -0.04   0.10    -0.02  -0.01   0.18    -0.31  -0.02   0.44
    68   1     0.13  -0.14   0.13     0.00  -0.02   0.07     0.01   0.19  -0.32
                      7                      8                      9
                      A                      A                      A
 Frequencies --     46.9897                47.6782                53.5361
 Red. masses --      5.0438                 1.5408                 3.9208
 Frc consts  --      0.0066                 0.0021                 0.0066
 IR Inten    --      2.7556                 0.3095                 0.1582
  Atom  AN      X      Y      Z        X      Y      Z        X      Y      Z
     1   6     0.02  -0.02   0.08    -0.02  -0.01   0.02    -0.04   0.03  -0.03
     2   6    -0.01  -0.01   0.11    -0.02  -0.01   0.02     0.00   0.00   0.02
     3   6    -0.04   0.05   0.09    -0.03   0.00   0.02     0.10  -0.06   0.11
     4   6    -0.04   0.09   0.06    -0.03   0.01   0.01     0.15  -0.09   0.14
     5   6    -0.01   0.08   0.03    -0.02   0.01   0.01     0.11  -0.06   0.10
     6   6     0.02   0.02   0.05    -0.02  -0.00   0.01     0.01   0.01   0.01
     7   6     0.03   0.01   0.01    -0.01  -0.01   0.01    -0.01   0.02  -0.02
     8   8    -0.12  -0.02   0.05     0.03  -0.01   0.00    -0.01   0.01  -0.02
     9   8    -0.04  -0.11   0.07     0.01   0.01  -0.00    -0.01   0.00  -0.02
    10  16    -0.05  -0.05   0.04     0.01  -0.00   0.00    -0.01   0.01  -0.02
    11   7    -0.01  -0.00   0.00     0.00  -0.01   0.01    -0.01   0.00  -0.03
    12   6     0.03   0.00  -0.03    -0.01  -0.02   0.01    -0.01   0.03  -0.00
    13   7     0.03  -0.01  -0.05    -0.01  -0.03   0.00    -0.02  -0.01   0.00
    14   6     0.04   0.00  -0.03     0.00  -0.02   0.00     0.00  -0.05   0.01
    15   7     0.02  -0.01  -0.05    -0.01  -0.03  -0.00    -0.03  -0.04   0.01
    16   6     0.05   0.01  -0.07    -0.01  -0.00  -0.02    -0.03  -0.03   0.00
    17   6     0.05   0.00   0.01    -0.00  -0.00   0.01    -0.01  -0.02   0.02
    18  15     0.05  -0.00  -0.04    -0.01  -0.02   0.00    -0.02  -0.05   0.01
    19   6     0.03  -0.00  -0.06    -0.00  -0.04  -0.03     0.01  -0.07   0.01
    20   6     0.02  -0.00  -0.07     0.00  -0.04  -0.05     0.03  -0.07   0.00
    21   6     0.02  -0.00  -0.05     0.01  -0.03  -0.04     0.05  -0.05  -0.00
    22   6     0.03  -0.00  -0.02     0.01  -0.01  -0.00     0.04  -0.03   0.00
    23   6     0.04   0.00  -0.01     0.01  -0.00   0.02     0.01  -0.02   0.00
    24   6     0.06   0.04  -0.06     0.01   0.02  -0.01    -0.03  -0.00   0.01
    25   6     0.03   0.08  -0.07    -0.01   0.04  -0.03    -0.06   0.03   0.01
    26   6    -0.00   0.08  -0.08    -0.03   0.04  -0.04    -0.10   0.03   0.01
    27   6    -0.01   0.05  -0.09    -0.04   0.02  -0.04    -0.09   0.01  -0.00
    28   6     0.02   0.02  -0.09    -0.03  -0.00  -0.03    -0.06  -0.02  -0.00
    29   6    -0.00  -0.01   0.05    -0.01   0.02   0.01    -0.02   0.02   0.02
    30   6    -0.01  -0.03   0.11     0.00   0.05   0.02     0.01   0.09   0.01
    31   6     0.04  -0.03   0.13     0.03   0.06   0.02     0.04   0.12   0.01
    32   6     0.09  -0.02   0.09     0.03   0.04   0.01     0.05   0.08   0.01
    33   6     0.10  -0.00   0.02     0.02   0.01   0.01     0.02   0.00   0.02
    34   1     0.04  -0.07   0.09    -0.01  -0.02   0.02    -0.11   0.08  -0.08
    35   1     0.00  -0.04   0.14    -0.02  -0.01   0.02    -0.04   0.03  -0.01
    36   1    -0.06   0.06   0.11    -0.03   0.01   0.02     0.13  -0.08   0.15
    37   1    -0.06   0.14   0.04    -0.03   0.02   0.01     0.23  -0.14   0.21
    38   1     0.07   0.02   0.02    -0.00  -0.01   0.01    -0.02   0.03  -0.03
    39   1     0.03  -0.00  -0.07    -0.01  -0.05  -0.04     0.00  -0.08   0.01
    40   1     0.02  -0.01  -0.09     0.00  -0.06  -0.08     0.04  -0.09  -0.00
    41   1     0.01  -0.01  -0.06     0.02  -0.04  -0.05     0.07  -0.05  -0.00
    42   1     0.03  -0.00  -0.01     0.02  -0.00   0.01     0.05  -0.01  -0.00
    43   1     0.04   0.00  -0.00     0.01   0.01   0.04     0.01  -0.01   0.00
    44   1     0.09   0.04  -0.05     0.02   0.02  -0.00    -0.01  -0.01   0.01
    45   1     0.04   0.11  -0.06     0.00   0.06  -0.02    -0.06   0.05   0.02
    46   1    -0.03   0.11  -0.08    -0.04   0.06  -0.05    -0.12   0.06   0.02
    47   1    -0.03   0.05  -0.10    -0.06   0.02  -0.05    -0.12   0.01  -0.00
    48   1     0.01  -0.01  -0.09    -0.04  -0.02  -0.03    -0.07  -0.04  -0.01
    49   1    -0.04  -0.01   0.03    -0.03   0.01   0.01    -0.05   0.00   0.02
    50   1    -0.05  -0.04   0.15    -0.00   0.07   0.02     0.00   0.13   0.01
    51   1     0.04  -0.05   0.18     0.04   0.09   0.02     0.07   0.18  -0.00
    52   1     0.13  -0.02   0.11     0.05   0.05   0.01     0.08   0.10   0.01
    53   1     0.13   0.01  -0.01     0.03  -0.00   0.01     0.03  -0.03   0.02
    54   1    -0.02   0.11   0.00    -0.02   0.01   0.00     0.15  -0.08   0.13
    55   6    -0.03  -0.07   0.04     0.01   0.00   0.00    -0.01   0.02  -0.03
    56   6    -0.07  -0.03  -0.02     0.01   0.00   0.00     0.03  -0.04   0.00
    57   6    -0.00  -0.08   0.05     0.01  -0.00   0.00    -0.04   0.08  -0.08
    58   6    -0.09   0.01  -0.06     0.01  -0.00   0.01     0.04  -0.04  -0.01
    59   1    -0.08  -0.02  -0.03     0.01   0.00   0.00     0.05  -0.09   0.04
    60   6    -0.03  -0.04   0.01     0.01  -0.00   0.01    -0.04   0.09  -0.09
    61   1     0.03  -0.11   0.10     0.01   0.00   0.00    -0.07   0.13  -0.11
    62   6    -0.07   0.01  -0.05     0.01  -0.00   0.01     0.00   0.03  -0.06
    63   1    -0.13   0.05  -0.10     0.01  -0.00   0.01     0.07  -0.08   0.01
    64   1    -0.01  -0.05   0.03     0.01  -0.00   0.01    -0.06   0.14  -0.13
    65   6    -0.13   0.07  -0.11     0.03  -0.01   0.01    -0.01   0.05  -0.09
    66   1     0.06  -0.01  -0.06    -0.39   0.28  -0.11     0.21  -0.07  -0.04
    67   1    -0.34   0.03  -0.01     0.46  -0.02  -0.35    -0.23   0.04   0.07
    68   1    -0.14   0.23  -0.31     0.08  -0.30   0.46    -0.03   0.20  -0.33
                     10                     11                     12
                      A                      A                      A
 Frequencies --     58.2558                60.7331                66.4628
 Red. masses --      4.2299                 6.5720                 4.8690
 Frc consts  --      0.0085                 0.0143                 0.0127
 IR Inten    --      0.8666                 6.4482                 0.7410
  Atom  AN      X      Y      Z        X      Y      Z        X      Y      Z
     1   6     0.04   0.01   0.06     0.04  -0.03   0.09     0.09   0.04   0.00
     2   6     0.05  -0.00   0.07     0.07  -0.05   0.12     0.13   0.02  -0.03
     3   6     0.02   0.02   0.03     0.08  -0.06   0.12     0.11  -0.02  -0.06
     4   6    -0.04   0.06  -0.01     0.05  -0.04   0.10     0.06  -0.04  -0.06
     5   6    -0.05   0.07  -0.01     0.02  -0.02   0.08     0.02  -0.02  -0.03
     6   6    -0.01   0.04   0.02     0.01  -0.01   0.07     0.04   0.02   0.00
     7   6    -0.02   0.05   0.01    -0.00  -0.00   0.06    -0.01   0.05   0.02
     8   8    -0.04   0.01  -0.01     0.19  -0.07  -0.08    -0.05  -0.02  -0.02
     9   8    -0.04   0.00  -0.01     0.08   0.10  -0.09    -0.04   0.00  -0.01
    10  16    -0.03   0.01  -0.01     0.10  -0.00  -0.04    -0.03  -0.00  -0.00
    11   7    -0.02   0.04   0.01     0.05  -0.04   0.04    -0.01   0.04   0.02
    12   6    -0.02   0.04   0.02    -0.00   0.00   0.09    -0.01   0.08   0.06
    13   7    -0.03   0.02   0.01    -0.02  -0.02   0.04    -0.02   0.04   0.08
    14   6    -0.00  -0.01   0.02    -0.08   0.02   0.01     0.00  -0.02   0.07
    15   7    -0.03  -0.01   0.01    -0.03  -0.03  -0.01    -0.03  -0.01   0.09
    16   6    -0.01  -0.03   0.00    -0.02  -0.00  -0.04    -0.02   0.01   0.06
    17   6    -0.03  -0.02   0.00    -0.04   0.02  -0.01    -0.03  -0.02   0.05
    18  15    -0.03  -0.02   0.01    -0.05   0.01  -0.01    -0.03  -0.01   0.09
    19   6     0.00  -0.08  -0.05    -0.10   0.06   0.02     0.02  -0.06   0.05
    20   6     0.05  -0.07  -0.04    -0.14   0.06   0.01     0.04  -0.09  -0.02
    21   6     0.08  -0.00   0.05    -0.17   0.02  -0.01     0.05  -0.08  -0.08
    22   6     0.08   0.06   0.11    -0.15  -0.03  -0.01     0.04  -0.04  -0.05
    23   6     0.03   0.05   0.10    -0.11  -0.02  -0.01     0.01  -0.01   0.02
    24   6    -0.13   0.02   0.08    -0.02   0.00  -0.04     0.10   0.00  -0.01
    25   6    -0.08  -0.01   0.06     0.03  -0.02  -0.08     0.15   0.01  -0.08
    26   6     0.08  -0.09  -0.04     0.08  -0.05  -0.12     0.08   0.02  -0.09
    27   6     0.19  -0.13  -0.11     0.08  -0.05  -0.12    -0.04   0.03  -0.02
    28   6     0.15  -0.10  -0.09     0.03  -0.03  -0.08    -0.10   0.03   0.06
    29   6    -0.01   0.01  -0.02    -0.06   0.02   0.01     0.02  -0.02   0.00
    30   6     0.00   0.04  -0.05    -0.07  -0.01   0.04     0.03   0.02  -0.08
    31   6    -0.00   0.06  -0.06    -0.06  -0.03   0.06    -0.01   0.05  -0.12
    32   6    -0.03   0.03  -0.04    -0.04  -0.02   0.04    -0.07   0.04  -0.07
    33   6    -0.04  -0.01  -0.01    -0.03   0.01   0.01    -0.08   0.00   0.01
    34   1     0.06  -0.00   0.08     0.04  -0.02   0.09     0.11   0.07   0.03
    35   1     0.10  -0.03   0.10     0.10  -0.07   0.14     0.17   0.03  -0.03
    36   1     0.03   0.02   0.04     0.11  -0.08   0.14     0.15  -0.04  -0.08
    37   1    -0.07   0.08  -0.04     0.05  -0.05   0.10     0.05  -0.07  -0.08
    38   1    -0.02   0.05   0.01    -0.03   0.02   0.03    -0.05   0.04   0.01
    39   1    -0.02  -0.13  -0.11    -0.08   0.10   0.03     0.01  -0.07   0.09
    40   1     0.05  -0.12  -0.09    -0.16   0.10   0.02     0.05  -0.12  -0.04
    41   1     0.12   0.00   0.06    -0.21   0.01  -0.01     0.06  -0.10  -0.14
    42   1     0.10   0.11   0.17    -0.18  -0.06  -0.03     0.04  -0.03  -0.09
    43   1     0.03   0.10   0.14    -0.09  -0.06  -0.00     0.01   0.02   0.03
    44   1    -0.25   0.08   0.16    -0.05   0.02  -0.01     0.16  -0.01  -0.01
    45   1    -0.16   0.02   0.11     0.03  -0.02  -0.08     0.23  -0.00  -0.13
    46   1     0.12  -0.12  -0.06     0.12  -0.07  -0.15     0.12   0.02  -0.14
    47   1     0.32  -0.20  -0.19     0.12  -0.07  -0.15    -0.10   0.05  -0.02
    48   1     0.25  -0.15  -0.16     0.04  -0.04  -0.09    -0.19   0.04   0.11
    49   1    -0.00   0.00  -0.01    -0.07   0.03  -0.00     0.05  -0.04   0.03
    50   1     0.02   0.07  -0.07    -0.09  -0.02   0.06     0.08   0.03  -0.12
    51   1     0.01   0.09  -0.08    -0.07  -0.06   0.09     0.00   0.09  -0.18
    52   1    -0.03   0.04  -0.04    -0.03  -0.04   0.06    -0.10   0.07  -0.10
    53   1    -0.05  -0.03   0.01    -0.02   0.01  -0.00    -0.12   0.00   0.05
    54   1    -0.09   0.10  -0.05    -0.00  -0.01   0.06    -0.02  -0.03  -0.03
    55   6    -0.01  -0.01  -0.00     0.08   0.00  -0.01    -0.01  -0.03   0.02
    56   6    -0.01  -0.02  -0.01     0.05   0.06  -0.02    -0.06   0.04  -0.03
    57   6     0.00  -0.00  -0.00     0.07  -0.03   0.00     0.02  -0.10   0.07
    58   6    -0.00  -0.01  -0.02     0.01   0.09  -0.03    -0.09   0.06  -0.04
    59   1    -0.01  -0.02  -0.01     0.05   0.09  -0.03    -0.09   0.08  -0.06
    60   6     0.01   0.00  -0.01     0.03  -0.01  -0.00     0.00  -0.08   0.06
    61   1     0.00   0.01   0.00     0.10  -0.08   0.01     0.07  -0.16   0.11
    62   6     0.01  -0.00  -0.02    -0.01   0.06  -0.03    -0.06   0.01   0.00
    63   1    -0.00  -0.02  -0.03    -0.02   0.14  -0.05    -0.14   0.13  -0.08
    64   1     0.01   0.01  -0.02     0.02  -0.03   0.00     0.03  -0.13   0.10
    65   6     0.01   0.00  -0.04    -0.08   0.12  -0.06    -0.11   0.04  -0.02
    66   1     0.03   0.01  -0.04    -0.09   0.14  -0.06    -0.14   0.08  -0.03
    67   1    -0.01  -0.00  -0.04    -0.14   0.08  -0.09    -0.12   0.02  -0.07
    68   1     0.01   0.01  -0.06    -0.08   0.18  -0.05    -0.11   0.07   0.00
                     13                     14                     15
                      A                      A                      A
 Frequencies --     83.2689                86.5884                91.5685
 Red. masses --      4.4591                 5.2409                 4.7944
 Frc consts  --      0.0182                 0.0232                 0.0237
 IR Inten    --      0.1829                 1.0349                 1.0641
  Atom  AN      X      Y      Z        X      Y      Z        X      Y      Z
     1   6    -0.03  -0.03  -0.02     0.11   0.09  -0.02    -0.13   0.05  -0.06
     2   6     0.00  -0.05   0.00     0.09   0.11  -0.10    -0.15   0.05  -0.03
     3   6     0.04  -0.08   0.04     0.05   0.09  -0.16    -0.05   0.03   0.07
     4   6     0.05  -0.09   0.05     0.03   0.04  -0.12     0.06  -0.01   0.12
     5   6     0.02  -0.07   0.02     0.05   0.02  -0.03     0.07  -0.01   0.08
     6   6    -0.02  -0.03  -0.01     0.08   0.05   0.01    -0.03   0.02  -0.02
     7   6    -0.03  -0.03  -0.01     0.06   0.06   0.05    -0.01   0.01  -0.04
     8   8     0.02   0.02   0.02     0.01  -0.07  -0.06    -0.03   0.03  -0.02
     9   8    -0.00   0.02   0.00    -0.01   0.00  -0.05    -0.03   0.02  -0.02
    10  16    -0.00   0.02   0.01     0.02  -0.03  -0.01    -0.03   0.03  -0.03
    11   7    -0.01  -0.01   0.01     0.04   0.05   0.04    -0.03   0.01  -0.04
    12   6    -0.02  -0.02  -0.02     0.06   0.07   0.04    -0.01  -0.02  -0.06
    13   7    -0.02   0.02  -0.05     0.05   0.02   0.01    -0.00  -0.03  -0.01
    14   6    -0.00   0.01  -0.08    -0.03  -0.03  -0.02     0.00  -0.01   0.05
    15   7    -0.01   0.05  -0.06     0.03  -0.02  -0.02     0.01  -0.02   0.04
    16   6    -0.04  -0.01  -0.02    -0.02  -0.03  -0.00     0.07  -0.01   0.02
    17   6    -0.03   0.01  -0.04     0.01  -0.02  -0.02     0.05  -0.01   0.02
    18  15    -0.03   0.01  -0.07     0.00  -0.03  -0.03     0.05  -0.01   0.05
    19   6     0.01  -0.04  -0.11    -0.07  -0.03  -0.13    -0.05  -0.01  -0.09
    20   6     0.07  -0.00  -0.02    -0.11  -0.01  -0.07    -0.11  -0.02  -0.11
    21   6     0.11   0.08   0.11    -0.10   0.02   0.10    -0.12  -0.01   0.03
    22   6     0.09   0.12   0.11    -0.06   0.02   0.20    -0.07  -0.01   0.17
    23   6     0.04   0.08   0.01    -0.03  -0.01   0.13    -0.01  -0.01   0.17
    24   6    -0.01  -0.07  -0.05    -0.04  -0.01   0.02     0.11  -0.00   0.00
    25   6     0.00  -0.10  -0.03    -0.09   0.02   0.05     0.13   0.01  -0.03
    26   6    -0.02  -0.07   0.03    -0.12   0.04   0.06     0.10   0.01  -0.04
    27   6    -0.05  -0.01   0.07    -0.11   0.02   0.04     0.05   0.00  -0.02
    28   6    -0.06   0.02   0.04    -0.05  -0.02   0.01     0.04  -0.01   0.01
    29   6    -0.06   0.02  -0.01    -0.02  -0.01   0.01     0.08  -0.03   0.00
    30   6    -0.06   0.03   0.04    -0.01  -0.00   0.04     0.07  -0.06  -0.03
    31   6    -0.02   0.02   0.05     0.02   0.00   0.05     0.03  -0.05  -0.05
    32   6     0.01   0.02   0.02     0.05   0.00   0.03     0.01  -0.02  -0.03
    33   6     0.01   0.01  -0.02     0.05  -0.01  -0.01     0.02  -0.00   0.01
    34   1    -0.05  -0.01  -0.04     0.14   0.12   0.02    -0.19   0.06  -0.13
    35   1    -0.01  -0.04  -0.01     0.10   0.15  -0.13    -0.22   0.08  -0.07
    36   1     0.07  -0.10   0.06     0.04   0.11  -0.23    -0.07   0.03   0.10
    37   1     0.09  -0.12   0.08     0.00   0.01  -0.16     0.13  -0.03   0.20
    38   1    -0.03  -0.04  -0.00     0.04   0.04   0.05     0.02   0.01  -0.03
    39   1    -0.02  -0.09  -0.19    -0.07  -0.05  -0.25    -0.04  -0.01  -0.19
    40   1     0.08  -0.03  -0.03    -0.14  -0.01  -0.16    -0.15  -0.02  -0.23
    41   1     0.15   0.11   0.19    -0.12   0.04   0.16    -0.16  -0.02   0.02
    42   1     0.12   0.18   0.20    -0.06   0.03   0.32    -0.08  -0.02   0.26
    43   1     0.03   0.10   0.02    -0.01  -0.02   0.17     0.01  -0.02   0.23
    44   1    -0.00  -0.08  -0.09    -0.01  -0.02   0.01     0.13   0.00   0.02
    45   1     0.02  -0.15  -0.06    -0.10   0.04   0.06     0.15   0.01  -0.04
    46   1    -0.01  -0.10   0.05    -0.17   0.07   0.09     0.11   0.02  -0.06
    47   1    -0.07   0.01   0.12    -0.14   0.03   0.06     0.03   0.00  -0.03
    48   1    -0.07   0.07   0.07    -0.04  -0.03   0.00     0.01  -0.01   0.03
    49   1    -0.10   0.03  -0.02    -0.04  -0.02   0.00     0.12  -0.04   0.02
    50   1    -0.09   0.03   0.06    -0.03  -0.00   0.06     0.09  -0.08  -0.05
    51   1    -0.02   0.02   0.09     0.03   0.01   0.07     0.03  -0.07  -0.08
    52   1     0.04   0.01   0.04     0.08   0.01   0.03    -0.03  -0.02  -0.05
    53   1     0.04   0.01  -0.04     0.07  -0.01  -0.02    -0.01   0.02   0.02
    54   1     0.03  -0.08   0.03     0.03  -0.01  -0.01     0.15  -0.04   0.12
    55   6     0.01   0.02  -0.00     0.04  -0.07   0.02    -0.04   0.04  -0.04
    56   6    -0.07   0.11  -0.08     0.04  -0.06   0.02    -0.05   0.05  -0.06
    57   6     0.08  -0.07   0.08     0.02  -0.07   0.01    -0.02   0.02  -0.02
    58   6    -0.07   0.11  -0.08     0.01  -0.04   0.02    -0.04   0.04  -0.04
    59   1    -0.12   0.19  -0.14     0.05  -0.05   0.03    -0.07   0.07  -0.08
    60   6     0.09  -0.08   0.09    -0.01  -0.05   0.00     0.00  -0.01  -0.00
    61   1     0.14  -0.15   0.15     0.02  -0.08   0.00    -0.01   0.00  -0.01
    62   6     0.01   0.01   0.01    -0.02  -0.03  -0.00    -0.00  -0.00  -0.01
    63   1    -0.13   0.19  -0.15     0.01  -0.02   0.02    -0.04   0.05  -0.05
    64   1     0.15  -0.16   0.16    -0.03  -0.04  -0.01     0.03  -0.04   0.03
    65   6     0.02   0.00   0.03    -0.07   0.01  -0.03     0.04  -0.05   0.04
    66   1    -0.00   0.00   0.02    -0.07   0.03  -0.03     0.04  -0.08   0.04
    67   1     0.05   0.01   0.02    -0.10  -0.02  -0.05     0.08  -0.02   0.07
    68   1     0.02  -0.02   0.05    -0.07   0.05  -0.02     0.04  -0.09   0.04
                     16                     17                     18
                      A                      A                      A
 Frequencies --     95.5186                99.8300               128.0505
 Red. masses --      4.0972                 4.5200                 8.0468
 Frc consts  --      0.0220                 0.0265                 0.0777
 IR Inten    --      0.3280                 0.4316                 8.5591
  Atom  AN      X      Y      Z        X      Y      Z        X      Y      Z
     1   6     0.00  -0.01   0.04    -0.10   0.13  -0.05    -0.05   0.04   0.05
     2   6    -0.01  -0.00   0.03    -0.18   0.19  -0.14     0.01   0.01   0.00
     3   6    -0.04   0.02   0.01    -0.12   0.13  -0.09     0.02  -0.08  -0.02
     4   6    -0.06   0.03  -0.01     0.04  -0.01   0.06    -0.05  -0.12   0.00
     5   6    -0.05   0.02   0.00     0.10  -0.06   0.14    -0.11  -0.07   0.05
     6   6    -0.02   0.00   0.03     0.02   0.02   0.07    -0.11   0.01   0.07
     7   6    -0.01  -0.00   0.03     0.02   0.02   0.08    -0.10   0.01   0.13
     8   8     0.02  -0.03  -0.01     0.03  -0.07  -0.00     0.07  -0.10  -0.11
     9   8     0.01   0.01  -0.00    -0.01  -0.03  -0.01    -0.20   0.26  -0.18
    10  16     0.01  -0.01   0.01     0.02  -0.05   0.02    -0.07   0.06   0.01
    11   7     0.00  -0.01   0.02     0.02   0.00   0.07    -0.12   0.13   0.21
    12   6    -0.01  -0.00   0.03     0.02   0.02   0.07    -0.08  -0.05  -0.01
    13   7    -0.01   0.02   0.00     0.01   0.01   0.03    -0.08  -0.03  -0.09
    14   6    -0.00   0.01  -0.03    -0.01   0.01  -0.01     0.06  -0.00  -0.03
    15   7    -0.01   0.04  -0.01     0.00   0.01  -0.01    -0.06   0.00  -0.06
    16   6    -0.01  -0.01  -0.00    -0.03   0.01  -0.02     0.11  -0.02  -0.06
    17   6    -0.02   0.01  -0.01    -0.03   0.01  -0.01     0.07  -0.01   0.01
    18  15    -0.02   0.02  -0.02    -0.03   0.01  -0.01     0.06  -0.00  -0.03
    19   6    -0.00  -0.03  -0.08     0.02   0.00   0.05     0.06   0.03   0.00
    20   6     0.02  -0.01  -0.04     0.06   0.00   0.04     0.04   0.03   0.01
    21   6     0.05   0.04   0.05     0.07   0.01  -0.03     0.03   0.00  -0.01
    22   6     0.05   0.07   0.08     0.04   0.02  -0.08     0.03  -0.02  -0.03
    23   6     0.02   0.05   0.03     0.00   0.02  -0.07     0.05  -0.02  -0.03
    24   6     0.11  -0.08  -0.09    -0.04   0.00  -0.01     0.07  -0.01  -0.04
    25   6     0.17  -0.12  -0.12     0.00  -0.03  -0.03    -0.01   0.02   0.04
    26   6     0.12  -0.09  -0.06     0.06  -0.05  -0.06    -0.05   0.04   0.09
    27   6    -0.01  -0.01   0.04     0.06  -0.04  -0.06     0.02   0.03   0.05
    28   6    -0.07   0.04   0.07     0.02  -0.01  -0.04     0.10  -0.00  -0.03
    29   6    -0.03   0.01  -0.00    -0.04   0.02  -0.00     0.10  -0.02  -0.01
    30   6    -0.03   0.00   0.00    -0.04   0.03   0.01     0.09  -0.05  -0.04
    31   6    -0.03   0.01   0.00    -0.03   0.02   0.02     0.06  -0.05  -0.04
    32   6    -0.02   0.01  -0.00    -0.02   0.01   0.01     0.04  -0.03  -0.03
    33   6    -0.02   0.02  -0.01    -0.02   0.01  -0.00     0.05  -0.01  -0.00
    34   1     0.02  -0.03   0.06    -0.15   0.18  -0.09    -0.05   0.10   0.07
    35   1     0.01  -0.02   0.05    -0.29   0.29  -0.25     0.06   0.04  -0.02
    36   1    -0.05   0.03  -0.00    -0.19   0.18  -0.16     0.07  -0.11  -0.04
    37   1    -0.09   0.05  -0.03     0.10  -0.06   0.11    -0.04  -0.18  -0.01
    38   1    -0.01   0.00   0.02     0.02   0.02   0.07    -0.02  -0.08   0.22
    39   1    -0.02  -0.07  -0.14     0.01  -0.00   0.09     0.07   0.04   0.01
    40   1     0.03  -0.04  -0.07     0.08  -0.00   0.09     0.04   0.05   0.03
    41   1     0.07   0.06   0.10     0.09   0.00  -0.03     0.01   0.01  -0.00
    42   1     0.07   0.11   0.14     0.05   0.03  -0.13     0.02  -0.04  -0.04
    43   1     0.01   0.07   0.05    -0.01   0.03  -0.08     0.06  -0.04  -0.03
    44   1     0.15  -0.10  -0.12    -0.07   0.02   0.00     0.09  -0.03  -0.07
    45   1     0.24  -0.18  -0.18    -0.00  -0.03  -0.03    -0.05   0.02   0.06
    46   1     0.17  -0.12  -0.09     0.10  -0.08  -0.08    -0.12   0.08   0.15
    47   1    -0.06   0.03   0.08     0.11  -0.06  -0.08    -0.00   0.05   0.08
    48   1    -0.17   0.10   0.14     0.04  -0.01  -0.04     0.14  -0.00  -0.05
    49   1    -0.03   0.01  -0.01    -0.06   0.02  -0.01     0.13  -0.02  -0.00
    50   1    -0.03   0.00   0.01    -0.05   0.03   0.02     0.10  -0.06  -0.05
    51   1    -0.03   0.00   0.01    -0.03   0.03   0.03     0.05  -0.07  -0.06
    52   1    -0.01   0.01  -0.00    -0.01   0.01   0.02     0.01  -0.04  -0.04
    53   1    -0.01   0.02  -0.01    -0.01   0.00  -0.01     0.03   0.00   0.01
    54   1    -0.06   0.04  -0.01     0.21  -0.15   0.24    -0.16  -0.11   0.07
    55   6    -0.00  -0.01   0.02     0.03  -0.06   0.03    -0.01  -0.03   0.08
    56   6     0.07  -0.11   0.10     0.01  -0.04   0.01    -0.00  -0.07   0.07
    57   6    -0.08   0.08  -0.07     0.03  -0.07   0.03     0.02  -0.02   0.09
    58   6     0.07  -0.10   0.10     0.00  -0.03  -0.00     0.02  -0.06   0.04
    59   1     0.13  -0.18   0.17     0.01  -0.04   0.00    -0.02  -0.08   0.06
    60   6    -0.09   0.09  -0.08     0.02  -0.06   0.02     0.03  -0.01   0.05
    61   1    -0.14   0.15  -0.13     0.04  -0.09   0.04     0.01   0.01   0.10
    62   6    -0.02   0.00  -0.00     0.00  -0.04  -0.00     0.02  -0.01   0.01
    63   1     0.13  -0.18   0.17    -0.01  -0.01  -0.02     0.01  -0.07   0.02
    64   1    -0.15   0.17  -0.15     0.02  -0.07   0.02     0.04   0.02   0.04
    65   6    -0.05   0.04  -0.03    -0.02  -0.02  -0.02    -0.02   0.07  -0.10
    66   1    -0.04   0.06  -0.03    -0.02  -0.00  -0.02     0.00   0.15  -0.10
    67   1    -0.08   0.01  -0.05    -0.02  -0.03  -0.03    -0.07   0.01  -0.17
    68   1    -0.05   0.07  -0.05    -0.02  -0.01  -0.01    -0.02   0.11  -0.12
                     19                     20                     21
[...]
 Vibration    50          0.845              1.034              0.452
 Vibration    51          0.856              1.008              0.431
                       Q            Log10(Q)             Ln(Q)
 Total Bot       0.239053-251       -251.621506       -579.379929
 Total V=0       0.142387D+31         30.153469         69.430928
 Vib (Bot)       0.198414-267       -267.702427       -616.407618
 Vib (Bot)    1  0.115198D+02          1.061445          2.444067
 Vib (Bot)    2  0.748687D+01          0.874300          2.013151
 Vib (Bot)    3  0.620478D+01          0.792726          1.825320
 Vib (Bot)    4  0.526795D+01          0.721641          1.661641
 Vib (Bot)    5  0.437022D+01          0.640503          1.474813
 Vib (Bot)    6  0.403712D+01          0.606072          1.395532
 Vib (Bot)    7  0.388163D+01          0.589014          1.356254
 Vib (Bot)    8  0.382526D+01          0.582661          1.341626
 Vib (Bot)    9  0.340419D+01          0.532014          1.225007
 Vib (Bot)   10  0.312634D+01          0.495036          1.139863
 Vib (Bot)   11  0.299772D+01          0.476791          1.097852
 Vib (Bot)   12  0.273681D+01          0.437244          1.006792
 Vib (Bot)   13  0.217762D+01          0.337983          0.778234
 Vib (Bot)   14  0.209268D+01          0.320702          0.738443
 Vib (Bot)   15  0.197669D+01          0.295938          0.681421
 Vib (Bot)   16  0.189320D+01          0.277198          0.638271
 Vib (Bot)   17  0.180955D+01          0.257571          0.593079
 Vib (Bot)   18  0.139957D+01          0.145995          0.336166
 Vib (Bot)   19  0.115658D+01          0.063177          0.145471
 Vib (Bot)   20  0.108293D+01          0.034600          0.079669
 Vib (Bot)   21  0.990314D+00         -0.004227         -0.009733
 Vib (Bot)   22  0.887535D+00         -0.051815         -0.119308
 Vib (Bot)   23  0.864880D+00         -0.063044         -0.145164
 Vib (Bot)   24  0.812053D+00         -0.090415         -0.208189
 Vib (Bot)   25  0.718889D+00         -0.143338         -0.330048
 Vib (Bot)   26  0.667761D+00         -0.175379         -0.403825
 Vib (Bot)   27  0.648633D+00         -0.188001         -0.432888
 Vib (Bot)   28  0.637898D+00         -0.195249         -0.449577
 Vib (Bot)   29  0.606206D+00         -0.217380         -0.500536
 Vib (Bot)   30  0.590232D+00         -0.228977         -0.527239
 Vib (Bot)   31  0.545740D+00         -0.263014         -0.605612
 Vib (Bot)   32  0.526577D+00         -0.278538         -0.641357
 Vib (Bot)   33  0.494271D+00         -0.306035         -0.704672
 Vib (Bot)   34  0.461482D+00         -0.335845         -0.773311
 Vib (Bot)   35  0.447723D+00         -0.348991         -0.803581
 Vib (Bot)   36  0.419188D+00         -0.377591         -0.869436
 Vib (Bot)   37  0.380595D+00         -0.419537         -0.966020
 Vib (Bot)   38  0.365859D+00         -0.436686         -1.005507
 Vib (Bot)   39  0.365363D+00         -0.437275         -1.006863
 Vib (Bot)   40  0.354122D+00         -0.450846         -1.038112
 Vib (Bot)   41  0.353124D+00         -0.452073         -1.040937
 Vib (Bot)   42  0.348953D+00         -0.457233         -1.052818
 Vib (Bot)   43  0.345030D+00         -0.462143         -1.064125
 Vib (Bot)   44  0.311928D+00         -0.505945         -1.164982
 Vib (Bot)   45  0.297813D+00         -0.526056         -1.211289
 Vib (Bot)   46  0.284477D+00         -0.545953         -1.257104
 Vib (Bot)   47  0.278748D+00         -0.554788         -1.277447
 Vib (Bot)   48  0.267776D+00         -0.572229         -1.317606
 Vib (Bot)   49  0.253553D+00         -0.595931         -1.372182
 Vib (Bot)   50  0.249587D+00         -0.602778         -1.387948
 Vib (Bot)   51  0.241501D+00         -0.617080         -1.420880
 Vib (V=0)       0.118181D+15         14.072548         32.403239
 Vib (V=0)    1  0.120306D+02          1.080289          2.487457
 Vib (V=0)    2  0.800355D+01          0.903282          2.079885
 Vib (V=0)    3  0.672489D+01          0.827685          1.905816
 Vib (V=0)    4  0.579162D+01          0.762800          1.756413
 Vib (V=0)    5  0.489873D+01          0.690083          1.588976
 Vib (V=0)    6  0.456797D+01          0.659723          1.519068
 Vib (V=0)    7  0.441370D+01          0.644802          1.484713
 Vib (V=0)    8  0.435780D+01          0.639267          1.471967
 Vib (V=0)    9  0.394071D+01          0.595575          1.371362
 Vib (V=0)   10  0.366607D+01          0.564201          1.299121
 Vib (V=0)   11  0.353913D+01          0.548897          1.263882
 Vib (V=0)   12  0.328211D+01          0.516153          1.188486
 Vib (V=0)   13  0.273429D+01          0.436844          1.005871
 Vib (V=0)   14  0.265158D+01          0.423504          0.975155
 Vib (V=0)   15  0.253894D+01          0.404653          0.931748
 Vib (V=0)   16  0.245812D+01          0.390603          0.899396
 Vib (V=0)   17  0.237736D+01          0.376095          0.865990
 Vib (V=0)   18  0.198620D+01          0.298024          0.686225
 Vib (V=0)   19  0.176003D+01          0.245521          0.565334
 Vib (V=0)   20  0.169278D+01          0.228602          0.526375
 Vib (V=0)   21  0.160938D+01          0.206658          0.475848
 Vib (V=0)   22  0.151868D+01          0.181468          0.417844
 Vib (V=0)   23  0.149901D+01          0.175804          0.404804
 Vib (V=0)   24  0.145364D+01          0.162457          0.374071
 Vib (V=0)   25  0.137567D+01          0.138515          0.318942
 Vib (V=0)   26  0.133421D+01          0.125224          0.288338
 Vib (V=0)   27  0.131898D+01          0.120237          0.276857
 Vib (V=0)   28  0.131050D+01          0.117438          0.270410
 Vib (V=0)   29  0.128580D+01          0.109174          0.251383
 Vib (V=0)   30  0.127355D+01          0.105015          0.241805
 Vib (V=0)   31  0.124016D+01          0.093477          0.215238
 Vib (V=0)   32  0.122614D+01          0.088541          0.203873
 Vib (V=0)   33  0.120307D+01          0.080290          0.184874
 Vib (V=0)   34  0.118042D+01          0.072035          0.165867
 Vib (V=0)   35  0.117116D+01          0.068616          0.157995
 Vib (V=0)   36  0.115247D+01          0.061630          0.141908
 Vib (V=0)   37  0.112837D+01          0.052453          0.120777
 Vib (V=0)   38  0.111956D+01          0.049047          0.112935
 Vib (V=0)   39  0.111927D+01          0.048933          0.112673
 Vib (V=0)   40  0.111270D+01          0.046379          0.106791
 Vib (V=0)   41  0.111212D+01          0.046153          0.106272
 Vib (V=0)   42  0.110973D+01          0.045217          0.104115
 Vib (V=0)   43  0.110749D+01          0.044340          0.102097
 Vib (V=0)   44  0.108932D+01          0.037156          0.085555
 Vib (V=0)   45  0.108197D+01          0.034216          0.078786
 Vib (V=0)   46  0.107526D+01          0.031515          0.072565
 Vib (V=0)   47  0.107245D+01          0.030378          0.069947
 Vib (V=0)   48  0.106719D+01          0.028241          0.065028
 Vib (V=0)   49  0.106061D+01          0.025558          0.058849
 Vib (V=0)   50  0.105883D+01          0.024827          0.057167
 Vib (V=0)   51  0.105527D+01          0.023363          0.053795
 Electronic      0.100000D+01          0.000000          0.000000
 Translational   0.382393D+09          8.582510         19.761960
 Rotational      0.315073D+08          7.498411         17.265730
 ***** Axes restored to original set *****
 -------------------------------------------------------------------
 Center     Atomic                   Forces (Hartrees/Bohr)
 Number     Number              X              Y              Z
 -------------------------------------------------------------------
      1        6          -0.000002643    0.000000091    0.000000555
      2        6           0.000004067   -0.000001945   -0.000003721
      3        6          -0.000002982    0.000001201   -0.000000051
      4        6          -0.000002143    0.000000678   -0.000000436
      5        6           0.000001674   -0.000001028    0.000000741
      6        6           0.000004054   -0.000002004   -0.000002710
      7        6          -0.000010538   -0.000004621   -0.000008141
      8        8           0.000000725   -0.000001641   -0.000001876
      9        8          -0.000005197   -0.000000006   -0.000001481
     10       16           0.000005047    0.000001025    0.000004035
     11        7           0.000004324    0.000006116   -0.000000715
     12        6           0.000000450   -0.000000840    0.000003828
     13        7          -0.000003286   -0.000002597   -0.000002076
     14        6          -0.000002955    0.000000655    0.000009875
     15        7           0.000001290    0.000000769    0.000007489
     16        6           0.000003682   -0.000003327   -0.000001564
     17        6          -0.000000882    0.000006714   -0.000008899
     18       15          -0.000004544    0.000002004   -0.000007673
     19        6           0.000000055   -0.000002663   -0.000001979
     20        6           0.000004253    0.000003707    0.000001238
     21        6          -0.000004706   -0.000001275    0.000001218
     22        6           0.000001224   -0.000000908    0.000000374
     23        6          -0.000004638   -0.000000036    0.000002926
     24        6           0.000001038    0.000000716    0.000004288
     25        6           0.000000270    0.000000116    0.000001581
     26        6          -0.000000848    0.000001736   -0.000001179
     27        6           0.000001506   -0.000000328   -0.000000255
     28        6          -0.000000944   -0.000001191    0.000001874
     29        6           0.000002220   -0.000004054    0.000001519
     30        6          -0.000002863   -0.000002325    0.000006260
     31        6           0.000001450    0.000001893    0.000000148
     32        6           0.000001807    0.000000884    0.000002887
     33        6          -0.000000802    0.000003204    0.000009980
     34        1           0.000002030    0.000001196   -0.000001139
     35        1          -0.000001191    0.000000198   -0.000001822
     36        1          -0.000000593    0.000000224   -0.000000278
     37        1          -0.000001981   -0.000000598   -0.000001651
     38        1           0.000000818   -0.000001791    0.000000362
     39        1           0.000000593    0.000001003    0.000001533
     40        1           0.000000877   -0.000000620    0.000001932
     41        1           0.000001732    0.000000405   -0.000000334
     42        1           0.000002659   -0.000000487   -0.000002104
     43        1          -0.000001030    0.000002197   -0.000001734
     44        1           0.000000348   -0.000002276   -0.000000188
     45        1           0.000006251    0.000000990   -0.000000424
     46        1          -0.000001141   -0.000000760    0.000001656
     47        1           0.000000082    0.000000841    0.000000987
     48        1          -0.000000391    0.000001425    0.000001320
     49        1           0.000000019   -0.000000645    0.000003119
     50        1          -0.000000698   -0.000000520    0.000003245
     51        1          -0.000000049    0.000000634    0.000003352
     52        1           0.000000349    0.000000662    0.000002318
     53        1           0.000000469   -0.000000388    0.000000257
     54        1          -0.000003294   -0.000001524   -0.000001687
     55        6           0.000000398   -0.000000500   -0.000004516
     56        6          -0.000000473   -0.000001348   -0.000001720
     57        6           0.000000495    0.000004081   -0.000002126
     58        6           0.000000161   -0.000001951   -0.000001230
     59        1          -0.000001374   -0.000000490   -0.000000603
     60        6          -0.000000876   -0.000000181   -0.000001006
     61        1           0.000001245   -0.000002398   -0.000001197
     62        6           0.000001678    0.000004310   -0.000004309
     63        1          -0.000000944   -0.000000823   -0.000002542
     64        1           0.000000529   -0.000000722   -0.000000667
     65        6           0.000000758   -0.000001285   -0.000001966
     66        1           0.000000819    0.000000321   -0.000002397
     67        1           0.000002024   -0.000000205   -0.000000478
     68        1           0.000000531    0.000000306   -0.000002025
 -------------------------------------------------------------------
 Cartesian Forces:  Max     0.000010538 RMS     0.000002719
 FormGI is forming the generalized inverse of G from B-inverse, IUseBI=4.

 ----------------------------------------------------------------------

 Electric dipole moment (input orientation):
 (Debye = 10**-18 statcoulomb cm , SI units = C m)
                  (au)            (Debye)         (10**-30 SI)
   Tot        0.750898D+01      0.190859D+02      0.636637D+02
   x         -0.520427D+01     -0.132279D+02     -0.441236D+02
   y         -0.522898D+01     -0.132907D+02     -0.443331D+02
   z          0.139931D+01      0.355669D+01      0.118638D+02

 Dipole polarizability, Alpha (input orientation).
 (esu units = cm**3 , SI units = C**2 m**2 J**-1)
 Alpha(0;0):
               (au)            (10**-24 esu)      (10**-40 SI)
   iso        0.491601D+03      0.728478D+02      0.810541D+02
   aniso      0.167287D+03      0.247894D+02      0.275819D+02
   xx         0.580691D+03      0.860495D+02      0.957430D+02
   yx        -0.400035D+02     -0.592790D+01     -0.659568D+01
   yy         0.477043D+03      0.706906D+02      0.786538D+02
   zx        -0.160183D+02     -0.237366D+01     -0.264106D+01
   zy        -0.248900D+02     -0.368832D+01     -0.410380D+01
   zz         0.417069D+03      0.618033D+02      0.687654D+02

 ----------------------------------------------------------------------

 Dipole orientation:
     6          2.00301922         -4.13744955         -1.29313419
     6          3.92327105         -5.85202994         -0.79474181
     6          4.02705974         -8.13605848         -2.10695791
     6          2.20128426         -8.69115227         -3.91528888
     6          0.27334828         -6.96573216         -4.41565530
     6          0.17194541         -4.68655909         -3.10931718
     6         -1.86283492         -2.72478044         -3.72972349
     8          0.70317366          2.96778391         -7.21882645
     8         -0.13926874         -1.42087813         -8.82368817
    16          0.61798783          0.23354923         -6.70308934
     7         -1.00938665         -0.17041747         -4.22724642
     6         -3.41371273         -2.32469435         -1.42322431
     7         -4.18507571         -1.67691858          0.50781122
     6         -3.82389208          4.31833655          1.91795918
     7         -5.03157082         -0.96350244          2.70739757
     6         -0.07521462          0.74504598          3.89790049
     6         -4.60353437          1.97111572          6.91324699
    15         -3.40350557          1.49919133          3.78161998
     6         -5.06981968          6.42304413          2.92447953
     6         -5.45567951          8.54545781          1.42238931
     6         -4.61526786          8.56872468         -1.07283264
     6         -3.38241212          6.46985329         -2.07670167
     6         -2.97559550          4.33994305         -0.59374860
     6          1.78278198          2.34363933          2.91183621
     6          4.30807639          1.61089069          2.99149159
     6          4.98098491         -0.69467415          4.06383987
     6          3.13262010         -2.28350450          5.06614939
     6          0.60699615         -1.57602893          4.97715331
     6         -7.13821805          1.43919657          7.44433529
     6         -8.07481031          1.89538289          9.85605922
     6         -6.49896715          2.88456626         11.71996928
     6         -3.97722978          3.41789650         11.18544319
     6         -3.01908265          2.96232506          8.78121747
     1          1.95456346         -2.32689188         -0.32812082
     1          5.35510151         -5.39585624          0.60286793
     1          5.53723442         -9.47286587         -1.72659384
     1          2.27907928        -10.46112728         -4.95086885
     1         -3.09199031         -3.50035118         -5.21644108
     1         -5.73461523          6.41349029          4.86492425
     1         -6.41516798         10.18050968          2.20410887
     1         -4.92374603         10.22921548         -2.23750765
     1         -2.72228821          6.46309185         -4.01853953
     1         -2.00152139          2.73360354         -1.44387922
     1          1.27446079          4.14306667          2.07355233
     1          5.74546464          2.84745256          2.21165368
     1          6.95188317         -1.26144518          4.11299202
     1          3.65695597         -4.08447421          5.89332979
     1         -0.83507688         -2.83212252          5.72278067
     1         -8.35491974          0.66086745          5.98933389
     1        -10.03651782          1.47644295         10.27988154
     1         -7.23966050          3.23759329         13.59981297
     1         -2.75142687          4.18078882         12.64091885
     1         -1.04924681          3.36632963          8.37067082
     1         -1.13602527         -7.38479453         -5.84998075
     6          3.81057363         -0.63780059         -5.95135605
     6          4.91460184         -2.75996254         -7.03027977
     6          5.08514038          0.71213015         -4.08322649
     6          7.28929403         -3.54641219         -6.21824433
     1          3.89670257         -3.80526163         -8.46906327
     6          7.45379391         -0.08719035         -3.28897984
     1          4.20823525          2.36066215         -3.23242843
     6          8.58174510         -2.24270908         -4.32503412
     1          8.13632219         -5.22203220         -7.05211403
     1          8.44077051          0.96512857         -1.82548392
     6         11.09260031         -3.18120902         -3.36079800
     1         12.24592590         -1.63460710         -2.61677183
     1         10.81564400         -4.54710568         -1.82597244
     1         12.16678266         -4.13373792         -4.84884369

 Electric dipole moment (dipole orientation):
 (Debye = 10**-18 statcoulomb cm , SI units = C m)
                  (au)            (Debye)         (10**-30 SI)
   Tot        0.750898D+01      0.190859D+02      0.636637D+02
   x          0.000000D+00      0.000000D+00      0.000000D+00
   y          0.000000D+00      0.000000D+00      0.000000D+00
   z          0.750898D+01      0.190859D+02      0.636637D+02

 Dipole polarizability, Alpha (dipole orientation).
 (esu units = cm**3 , SI units = C**2 m**2 J**-1)
 Alpha(0;0):
               (au)            (10**-24 esu)      (10**-40 SI)
   iso        0.491601D+03      0.728478D+02      0.810541D+02
   aniso      0.167287D+03      0.247894D+02      0.275819D+02
   xx         0.505133D+03      0.748530D+02      0.832852D+02
   yx        -0.800044D+02     -0.118554D+02     -0.131909D+02
   yy         0.472939D+03      0.700823D+02      0.779771D+02
   zx        -0.253792D+02     -0.376080D+01     -0.418446D+01
   zy         0.447736D+02      0.663477D+01      0.738217D+01
   zz         0.496732D+03      0.736080D+02      0.819000D+02

 ----------------------------------------------------------------------

 This type of calculation cannot be archived.


 Children are likely to live up to what you believe of them.
 -- Lady Bird Johnson
 Job cpu time:       0 days  0 hours  0 minutes  2.1 seconds.
 Elapsed time:       0 days  0 hours  0 minutes  0.6 seconds.
 File lengths (MBytes):  RWF=     10 Int=      0 D2E=      0 Chk=     11 Scr=      1
 Normal termination of Gaussian 16 at Sat Apr  4 18:50:34 2020.
