 Entering Gaussian System, Link 0=g16
 Initial command:
 /apps/cent7/gaussian/g16-A.03/g16-haswell/g16/l1.exe "/scratch/brown/finej/0051_imine_mechanism/ts_631gd/acyclic_complete/new_logs_2/Gau-245005.inp" -scrdir="/scratch/brown/finej/0051_imine_mechanism/ts_631gd/acyclic_complete/new_logs_2/"
 Entering Link 1 = /apps/cent7/gaussian/g16-A.03/g16-haswell/g16/l1.exe PID=    245008.
  
 Copyright (c) 1988,1990,1992,1993,1995,1998,2003,2009,2016,
            Gaussian, Inc.  All Rights Reserved.
  
 This is part of the Gaussian(R) 16 program.  It is based on
 the Gaussian(R) 09 system (copyright 2009, Gaussian, Inc.),
 the Gaussian(R) 03 system (copyright 2003, Gaussian, Inc.),
 the Gaussian(R) 98 system (copyright 1998, Gaussian, Inc.),
 the Gaussian(R) 94 system (copyright 1995, Gaussian, Inc.),
 the Gaussian 92(TM) system (copyright 1992, Gaussian, Inc.),
 the Gaussian 90(TM) system (copyright 1990, Gaussian, Inc.),
 the Gaussian 88(TM) system (copyright 1988, Gaussian, Inc.),
 the Gaussian 86(TM) system (copyright 1986, Carnegie Mellon
 University), and the Gaussian 82(TM) system (copyright 1983,
 Carnegie Mellon University). Gaussian is a federally registered
 trademark of Gaussian, Inc.
  
 This software contains proprietary and confidential information,
 including trade secrets, belonging to Gaussian, Inc.
  
 This software is provided under written license and may be
 used, copied, transmitted, or stored only in accord with that
 written license.
  
 The following legend is applicable only to US Government
 contracts under FAR:
  
                    RESTRICTED RIGHTS LEGEND
  
 Use, reproduction and disclosure by the US Government is
 subject to restrictions as set forth in subparagraphs (a)
 and (c) of the Commercial Computer Software - Restricted
 Rights clause in FAR 52.227-19.
  
 Gaussian, Inc.
 340 Quinnipiac St., Bldg. 40, Wallingford CT 06492
  
  
 ---------------------------------------------------------------
 Warning -- This program may not be used in any manner that
 competes with the business of Gaussian, Inc. or will provide
 assistance to any competitor of Gaussian, Inc.  The licensee
 of this program is prohibited from giving any competitor of
 Gaussian, Inc. access to this program.  By using this program,
 the user acknowledges that Gaussian, Inc. is engaged in the
 business of creating and licensing software in the field of
 computational chemistry and represents and warrants to the
 licensee that it is not a competitor of Gaussian, Inc. and that
 it will not use this program in any manner prohibited above.
 ---------------------------------------------------------------
  

 Cite this work as:
 Gaussian 16, Revision A.03,
 M. J. Frisch, G. W. Trucks, H. B. Schlegel, G. E. Scuseria, 
 M. A. Robb, J. R. Cheeseman, G. Scalmani, V. Barone, 
 G. A. Petersson, H. Nakatsuji, X. Li, M. Caricato, A. V. Marenich, 
 J. Bloino, B. G. Janesko, R. Gomperts, B. Mennucci, H. P. Hratchian, 
 J. V. Ortiz, A. F. Izmaylov, J. L. Sonnenberg, D. Williams-Young, 
 F. Ding, F. Lipparini, F. Egidi, J. Goings, B. Peng, A. Petrone, 
 T. Henderson, D. Ranasinghe, V. G. Zakrzewski, J. Gao, N. Rega, 
 G. Zheng, W. Liang, M. Hada, M. Ehara, K. Toyota, R. Fukuda, 
 J. Hasegawa, M. Ishida, T. Nakajima, Y. Honda, O. Kitao, H. Nakai, 
 T. Vreven, K. Throssell, J. A. Montgomery, Jr., J. E. Peralta, 
 F. Ogliaro, M. J. Bearpark, J. J. Heyd, E. N. Brothers, K. N. Kudin, 
 V. N. Staroverov, T. A. Keith, R. Kobayashi, J. Normand, 
 K. Raghavachari, A. P. Rendell, J. C. Burant, S. S. Iyengar, 
 J. Tomasi, M. Cossi, J. M. Millam, M. Klene, C. Adamo, R. Cammi, 
 J. W. Ochterski, R. L. Martin, K. Morokuma, O. Farkas, 
 J. B. Foresman, and D. J. Fox, Gaussian, Inc., Wallingford CT, 2016.
 
 ******************************************
 Gaussian 16:  ES64L-G16RevA.03 25-Dec-2016
                 4-Apr-2020 
 ******************************************
 %nprocshared=4
 Will use up to    4 processors via shared memory.
 %mem=1GB
 %oldchk=chk/acyclic_1_intr_2.chk
 Copying data from "chk/acyclic_1_intr_2.chk" to current chk file "/scratch/brown/finej/0051_imine_mechanism/ts_631gd/acyclic_complete/new_logs_2/Gau-245008.chk"
 IOpt=  2 FromEx=T IUOpen= 4 IOptOp= 5 NList=   0 IFRang= 0 IUIn= 4 IUOut= 2.
 ----------------------------------------------------------------------
 # freq=readfc wb97xd/6-31g(d) scrf=solvent=dichloromethane geom=check 
 temperature=263.15
 ----------------------------------------------------------------------
 1/29=2,38=1,112=263150,172=1/1;
 2/12=2,40=1/2;
 7/8=1,25=11/16;
 99/5=2/99;
 -----------------------------------
 PINC Interaction with Sulfonylimine
 -----------------------------------
 Structure from the checkpoint file:  "/scratch/brown/finej/0051_imine_mechanism/ts_631gd/acyclic_complete/new_logs_2/Gau-245008.chk"
 Charge =  0 Multiplicity = 1
 Redundant internal coordinates found in file.  (old form).
 C,0,0.3042705288,4.0737773273,-1.0258582736
 C,0,1.410300166,4.6816970681,-0.442430136
 C,0,1.6313426309,4.5495490904,0.9275036684
 C,0,0.7480911723,3.8083244687,1.7139222452
 C,0,-0.3626756227,3.209615085,1.135982894
 C,0,-0.5918848031,3.3420799879,-0.2386456181
 C,0,-1.7516239027,2.727532743,-0.8858504223
 O,0,-3.8221575673,1.7809963636,-2.5267156664
 O,0,-5.1192830875,1.7364404018,-0.370291503
 S,0,-3.9047953168,1.4136497254,-1.1122748189
 N,0,-2.6268916746,2.0658071301,-0.2193854793
 C,0,0.1303595604,0.9924329341,-2.6323959867
 N,0,0.4364690074,0.0446913079,-2.0037904775
 C,0,3.0838222679,-0.0182018749,-0.1463307273
 N,0,0.7310405408,-1.1126384801,-1.4139607593
 C,0,0.6330052329,-0.2978451269,1.3676182253
 C,0,1.9593734054,-2.6999877682,0.3935690874
 P,0,1.5655340157,-0.9909418153,-0.0254547923
 C,0,2.9780277088,1.377974133,-0.1923979684
 C,0,4.1167446676,2.1507049355,-0.3878973194
 C,0,5.3591743605,1.5376517577,-0.5360189792
 C,0,5.465996965,0.1492358007,-0.49429858
 C,0,4.3301309216,-0.6315543901,-0.305304771
 C,0,-0.7554042622,-0.4454798151,1.3576348961
 C,0,-1.5039698185,-0.0353236869,2.4557192979
 C,0,-0.8690008021,0.5185983811,3.5644986527
 C,0,0.5163673161,0.6754678612,3.5734098316
 C,0,1.2691456303,0.272642115,2.4758463502
 C,0,2.528745736,-2.9954010712,1.6363441142
 C,0,2.8223912708,-4.3132092267,1.9673245696
 C,0,2.5379561485,-5.3374808361,1.0659890168
 C,0,1.9650772265,-5.0444873443,-0.169140411
 C,0,1.6785932858,-3.7261514488,-0.5120805382
 H,0,0.1354777981,4.1553133733,-2.0953342478
 H,0,2.100964859,5.2525353209,-1.0548584764
 H,0,2.497937784,5.019221788,1.3831634583
 H,0,0.9283896586,3.694991999,2.7780366093
 H,0,-1.8399782534,2.8566108679,-1.9676814669
 H,0,2.0138302579,1.8628641861,-0.067729171
 H,0,4.030579908,3.2319103979,-0.4218793673
 H,0,6.2474095281,2.1439517577,-0.6844363119
 H,0,6.4342623114,-0.3272260988,-0.6090524525
 H,0,4.4160641194,-1.7136058638,-0.2770628774
 H,0,-1.2438209231,-0.8786286391,0.4909864133
 H,0,-2.5832282984,-0.1428900552,2.4387668839
 H,0,-1.4546920385,0.8362699068,4.4216221623
 H,0,1.010437695,1.1161486535,4.4334987877
 H,0,2.3463821962,0.4104282702,2.4822826121
 H,0,2.7399155517,-2.203705936,2.3497025045
 H,0,3.2666109647,-4.5406586223,2.9308408462
 H,0,2.7620641581,-6.3666259463,1.3288253923
 H,0,1.7422349134,-5.8423919186,-0.8702596908
 H,0,1.2326254619,-3.4848575752,-1.4705736887
 H,0,-1.0538559513,2.6277321529,1.7357599349
 C,0,-3.5621494419,-0.3166487304,-0.9505374827
 C,0,-4.0705659381,-1.0199187226,0.1370204863
 C,0,-2.7176711476,-0.9246809118,-1.8760243795
 C,0,-3.6991007028,-2.3491293173,0.3102724086
 H,0,-4.7408038487,-0.5328480429,0.8373811528
 C,0,-2.3565927487,-2.2508674929,-1.6850133128
 H,0,-2.3281045446,-0.3596453774,-2.7151620573
 C,0,-2.8258232023,-2.97601563,-0.5840386064
 H,0,-4.0845844471,-2.9025065632,1.1616721463
 H,0,-1.6785766759,-2.7226523408,-2.38886876
 C,0,-2.3619582808,-4.3913402968,-0.360574545
 H,0,-2.4461293264,-4.9837051753,-1.2771904443
 H,0,-1.3067810549,-4.4010845682,-0.0618998213
 H,0,-2.9398792548,-4.8858395862,0.4245477538
 Recover connectivity data from disk.
                           ----------------------------
                           !    Current Parameters    !
                           ! (Angstroms and Degrees)  !
 --------------------------                            --------------------------
 ! Name  Definition              Value          Derivative Info.                !
 --------------------------------------------------------------------------------
 ! R1    R(1,2)                  1.3904         estimate D2E/DX2                !
 ! R2    R(1,6)                  1.3993         estimate D2E/DX2                !
 ! R3    R(1,34)                 1.0858         estimate D2E/DX2                !
 ! R4    R(2,3)                  1.3939         estimate D2E/DX2                !
 ! R5    R(2,35)                 1.0853         estimate D2E/DX2                !
 ! R6    R(3,4)                  1.3957         estimate D2E/DX2                !
 ! R7    R(3,36)                 1.0859         estimate D2E/DX2                !
 ! R8    R(4,5)                  1.3879         estimate D2E/DX2                !
 ! R9    R(4,37)                 1.0852         estimate D2E/DX2                !
 ! R10   R(4,39)                 2.926          estimate D2E/DX2                !
 ! R11   R(5,6)                  1.3999         estimate D2E/DX2                !
 ! R12   R(5,54)                 1.0845         estimate D2E/DX2                !
 ! R13   R(6,7)                  1.4634         estimate D2E/DX2                !
 ! R14   R(7,11)                 1.2838         estimate D2E/DX2                !
 ! R15   R(7,38)                 1.0931         estimate D2E/DX2                !
 ! R16   R(8,10)                 1.4637         estimate D2E/DX2                !
 ! R17   R(9,10)                 1.4594         estimate D2E/DX2                !
 ! R18   R(10,11)                1.6899         estimate D2E/DX2                !
 ! R19   R(10,55)                1.7713         estimate D2E/DX2                !
 ! R20   R(12,13)                1.1777         estimate D2E/DX2                !
 ! R21   R(12,38)                2.7927         estimate D2E/DX2                !
 ! R22   R(13,15)                1.3319         estimate D2E/DX2                !
 ! R23   R(14,18)                1.8072         estimate D2E/DX2                !
 ! R24   R(14,19)                1.4009         estimate D2E/DX2                !
 ! R25   R(14,23)                1.3981         estimate D2E/DX2                !
 ! R26   R(15,18)                1.6245         estimate D2E/DX2                !
 ! R27   R(16,18)                1.814          estimate D2E/DX2                !
 ! R28   R(16,24)                1.3963         estimate D2E/DX2                !
 ! R29   R(16,28)                1.3994         estimate D2E/DX2                !
 ! R30   R(17,18)                1.8032         estimate D2E/DX2                !
 ! R31   R(17,29)                1.3986         estimate D2E/DX2                !
 ! R32   R(17,33)                1.3972         estimate D2E/DX2                !
 ! R33   R(19,20)                1.39           estimate D2E/DX2                !
 ! R34   R(19,39)                1.0864         estimate D2E/DX2                !
 ! R35   R(20,21)                1.3933         estimate D2E/DX2                !
 ! R36   R(20,40)                1.0852         estimate D2E/DX2                !
 ! R37   R(21,22)                1.3931         estimate D2E/DX2                !
 ! R38   R(21,41)                1.0856         estimate D2E/DX2                !
 ! R39   R(22,23)                1.3912         estimate D2E/DX2                !
 ! R40   R(22,42)                1.0852         estimate D2E/DX2                !
 ! R41   R(23,43)                1.0858         estimate D2E/DX2                !
 ! R42   R(24,25)                1.3908         estimate D2E/DX2                !
 ! R43   R(24,44)                1.085          estimate D2E/DX2                !
 ! R44   R(25,26)                1.3926         estimate D2E/DX2                !
 ! R45   R(25,45)                1.0847         estimate D2E/DX2                !
 ! R46   R(25,54)                2.7951         estimate D2E/DX2                !
 ! R47   R(26,27)                1.3942         estimate D2E/DX2                !
 ! R48   R(26,46)                1.0856         estimate D2E/DX2                !
 ! R49   R(27,28)                1.3905         estimate D2E/DX2                !
 ! R50   R(27,47)                1.0854         estimate D2E/DX2                !
 ! R51   R(28,48)                1.086          estimate D2E/DX2                !
 ! R52   R(29,30)                1.3901         estimate D2E/DX2                !
 ! R53   R(29,49)                1.0864         estimate D2E/DX2                !
 ! R54   R(30,31)                1.3937         estimate D2E/DX2                !
 ! R55   R(30,50)                1.0851         estimate D2E/DX2                !
 ! R56   R(31,32)                1.3927         estimate D2E/DX2                !
 ! R57   R(31,51)                1.0856         estimate D2E/DX2                !
 ! R58   R(32,33)                1.392          estimate D2E/DX2                !
 ! R59   R(32,52)                1.0853         estimate D2E/DX2                !
 ! R60   R(33,53)                1.0844         estimate D2E/DX2                !
 ! R61   R(44,56)                2.8523         estimate D2E/DX2                !
 ! R62   R(44,58)                2.8677         estimate D2E/DX2                !
 ! R63   R(55,56)                1.3914         estimate D2E/DX2                !
 ! R64   R(55,57)                1.3926         estimate D2E/DX2                !
 ! R65   R(56,58)                1.391          estimate D2E/DX2                !
 ! R66   R(56,59)                1.0849         estimate D2E/DX2                !
 ! R67   R(57,60)                1.3877         estimate D2E/DX2                !
 ! R68   R(57,61)                1.0841         estimate D2E/DX2                !
 ! R69   R(58,62)                1.3984         estimate D2E/DX2                !
 ! R70   R(58,63)                1.0861         estimate D2E/DX2                !
 ! R71   R(60,62)                1.3993         estimate D2E/DX2                !
 ! R72   R(60,64)                1.0852         estimate D2E/DX2                !
 ! R73   R(62,65)                1.5061         estimate D2E/DX2                !
 ! R74   R(65,66)                1.0946         estimate D2E/DX2                !
 ! R75   R(65,67)                1.0967         estimate D2E/DX2                !
 ! R76   R(65,68)                1.0931         estimate D2E/DX2                !
 ! A1    A(2,1,6)              120.1316         estimate D2E/DX2                !
 ! A2    A(2,1,34)             120.2739         estimate D2E/DX2                !
 ! A3    A(6,1,34)             119.5918         estimate D2E/DX2                !
 ! A4    A(1,2,3)              119.8067         estimate D2E/DX2                !
 ! A5    A(1,2,35)             119.9597         estimate D2E/DX2                !
 ! A6    A(3,2,35)             120.2328         estimate D2E/DX2                !
 ! A7    A(2,3,4)              120.2484         estimate D2E/DX2                !
 ! A8    A(2,3,36)             119.8632         estimate D2E/DX2                !
 ! A9    A(4,3,36)             119.8869         estimate D2E/DX2                !
 ! A10   A(3,4,5)              120.0618         estimate D2E/DX2                !
 ! A11   A(3,4,37)             120.1868         estimate D2E/DX2                !
 ! A12   A(3,4,39)              74.7077         estimate D2E/DX2                !
 ! A13   A(5,4,37)             119.751          estimate D2E/DX2                !
 ! A14   A(5,4,39)              78.8038         estimate D2E/DX2                !
 ! A15   A(37,4,39)            117.1142         estimate D2E/DX2                !
 ! A16   A(4,5,6)              119.9417         estimate D2E/DX2                !
 ! A17   A(4,5,54)             120.7467         estimate D2E/DX2                !
 ! A18   A(6,5,54)             119.3079         estimate D2E/DX2                !
 ! A19   A(1,6,5)              119.8035         estimate D2E/DX2                !
 ! A20   A(1,6,7)              118.5749         estimate D2E/DX2                !
 ! A21   A(5,6,7)              121.6213         estimate D2E/DX2                !
 ! A22   A(6,7,11)             121.8145         estimate D2E/DX2                !
 ! A23   A(6,7,38)             116.8835         estimate D2E/DX2                !
 ! A24   A(11,7,38)            121.302          estimate D2E/DX2                !
 ! A25   A(8,10,9)             118.8681         estimate D2E/DX2                !
 ! A26   A(8,10,11)            111.7804         estimate D2E/DX2                !
 ! A27   A(8,10,55)            108.8128         estimate D2E/DX2                !
 ! A28   A(9,10,11)            105.9814         estimate D2E/DX2                !
 ! A29   A(9,10,55)            109.3069         estimate D2E/DX2                !
 ! A30   A(11,10,55)           100.5131         estimate D2E/DX2                !
 ! A31   A(7,11,10)            116.1164         estimate D2E/DX2                !
 ! A32   A(13,12,38)           126.4055         estimate D2E/DX2                !
 ! A33   A(18,14,19)           118.3711         estimate D2E/DX2                !
 ! A34   A(18,14,23)           121.3574         estimate D2E/DX2                !
 ! A35   A(19,14,23)           120.0518         estimate D2E/DX2                !
 ! A36   A(13,15,18)           115.2777         estimate D2E/DX2                !
 ! A37   A(18,16,24)           117.7286         estimate D2E/DX2                !
 ! A38   A(18,16,28)           122.0217         estimate D2E/DX2                !
 ! A39   A(24,16,28)           120.0523         estimate D2E/DX2                !
 ! A40   A(18,17,29)           119.7102         estimate D2E/DX2                !
 ! A41   A(18,17,33)           120.1054         estimate D2E/DX2                !
 ! A42   A(29,17,33)           120.1778         estimate D2E/DX2                !
 ! A43   A(14,18,15)           114.501          estimate D2E/DX2                !
 ! A44   A(14,18,16)           106.1165         estimate D2E/DX2                !
 ! A45   A(14,18,17)           110.0108         estimate D2E/DX2                !
 ! A46   A(15,18,16)           114.8931         estimate D2E/DX2                !
 ! A47   A(15,18,17)           103.8752         estimate D2E/DX2                !
 ! A48   A(16,18,17)           107.2147         estimate D2E/DX2                !
 ! A49   A(14,19,20)           119.7888         estimate D2E/DX2                !
 ! A50   A(14,19,39)           120.5337         estimate D2E/DX2                !
 ! A51   A(20,19,39)           119.6754         estimate D2E/DX2                !
 ! A52   A(19,20,21)           120.0566         estimate D2E/DX2                !
 ! A53   A(19,20,40)           119.5551         estimate D2E/DX2                !
 ! A54   A(21,20,40)           120.3881         estimate D2E/DX2                !
 ! A55   A(20,21,22)           120.2439         estimate D2E/DX2                !
 ! A56   A(20,21,41)           119.8922         estimate D2E/DX2                !
 ! A57   A(22,21,41)           119.8639         estimate D2E/DX2                !
 ! A58   A(21,22,23)           120.0516         estimate D2E/DX2                !
 ! A59   A(21,22,42)           120.1854         estimate D2E/DX2                !
 ! A60   A(23,22,42)           119.763          estimate D2E/DX2                !
 ! A61   A(14,23,22)           119.8036         estimate D2E/DX2                !
 ! A62   A(14,23,43)           120.3155         estimate D2E/DX2                !
 ! A63   A(22,23,43)           119.8802         estimate D2E/DX2                !
 ! A64   A(16,24,25)           119.8918         estimate D2E/DX2                !
 ! A65   A(16,24,44)           119.7051         estimate D2E/DX2                !
 ! A66   A(25,24,44)           120.4031         estimate D2E/DX2                !
 ! A67   A(24,25,26)           120.0331         estimate D2E/DX2                !
 ! A68   A(24,25,45)           119.5985         estimate D2E/DX2                !
 ! A69   A(24,25,54)            89.4805         estimate D2E/DX2                !
 ! A70   A(26,25,45)           120.3667         estimate D2E/DX2                !
 ! A71   A(26,25,54)            75.6819         estimate D2E/DX2                !
 ! A72   A(45,25,54)           104.5173         estimate D2E/DX2                !
 ! A73   A(25,26,27)           120.1912         estimate D2E/DX2                !
 ! A74   A(25,26,46)           119.9338         estimate D2E/DX2                !
 ! A75   A(27,26,46)           119.8734         estimate D2E/DX2                !
 ! A76   A(26,27,28)           120.018          estimate D2E/DX2                !
 ! A77   A(26,27,47)           120.202          estimate D2E/DX2                !
 ! A78   A(28,27,47)           119.7794         estimate D2E/DX2                !
 ! A79   A(16,28,27)           119.8075         estimate D2E/DX2                !
 ! A80   A(16,28,48)           120.4852         estimate D2E/DX2                !
 ! A81   A(27,28,48)           119.7056         estimate D2E/DX2                !
 ! A82   A(17,29,30)           119.8558         estimate D2E/DX2                !
 ! A83   A(17,29,49)           120.577          estimate D2E/DX2                !
 ! A84   A(30,29,49)           119.5665         estimate D2E/DX2                !
 ! A85   A(29,30,31)           119.9741         estimate D2E/DX2                !
 ! A86   A(29,30,50)           119.7759         estimate D2E/DX2                !
 ! A87   A(31,30,50)           120.2487         estimate D2E/DX2                !
 ! A88   A(30,31,32)           120.1912         estimate D2E/DX2                !
 ! A89   A(30,31,51)           119.8686         estimate D2E/DX2                !
 ! A90   A(32,31,51)           119.9401         estimate D2E/DX2                !
 ! A91   A(31,32,33)           120.1586         estimate D2E/DX2                !
 ! A92   A(31,32,52)           120.1801         estimate D2E/DX2                !
 ! A93   A(33,32,52)           119.6611         estimate D2E/DX2                !
 ! A94   A(17,33,32)           119.6393         estimate D2E/DX2                !
 ! A95   A(17,33,53)           119.4845         estimate D2E/DX2                !
 ! A96   A(32,33,53)           120.8744         estimate D2E/DX2                !
 ! A97   A(7,38,12)             95.7228         estimate D2E/DX2                !
 ! A98   A(4,39,19)            138.6377         estimate D2E/DX2                !
 ! A99   A(24,44,56)           124.403          estimate D2E/DX2                !
 ! A100  A(24,44,58)           129.8264         estimate D2E/DX2                !
 ! A101  A(5,54,25)            139.1392         estimate D2E/DX2                !
 ! A102  A(10,55,56)           119.6332         estimate D2E/DX2                !
 ! A103  A(10,55,57)           118.8899         estimate D2E/DX2                !
 ! A104  A(56,55,57)           121.3564         estimate D2E/DX2                !
 ! A105  A(44,56,55)            73.1318         estimate D2E/DX2                !
 ! A106  A(44,56,59)           120.6577         estimate D2E/DX2                !
 ! A107  A(55,56,58)           118.8677         estimate D2E/DX2                !
 ! A108  A(55,56,59)           120.2272         estimate D2E/DX2                !
 ! A109  A(58,56,59)           120.9044         estimate D2E/DX2                !
 ! A110  A(55,57,60)           118.9193         estimate D2E/DX2                !
 ! A111  A(55,57,61)           120.3158         estimate D2E/DX2                !
 ! A112  A(60,57,61)           120.7419         estimate D2E/DX2                !
 ! A113  A(44,58,62)            74.6621         estimate D2E/DX2                !
 ! A114  A(44,58,63)           121.0467         estimate D2E/DX2                !
 ! A115  A(56,58,62)           121.032          estimate D2E/DX2                !
 ! A116  A(56,58,63)           119.3223         estimate D2E/DX2                !
 ! A117  A(62,58,63)           119.6409         estimate D2E/DX2                !
 ! A118  A(57,60,62)           121.0838         estimate D2E/DX2                !
 ! A119  A(57,60,64)           119.2596         estimate D2E/DX2                !
 ! A120  A(62,60,64)           119.6374         estimate D2E/DX2                !
 ! A121  A(58,62,60)           118.7036         estimate D2E/DX2                !
 ! A122  A(58,62,65)           121.248          estimate D2E/DX2                !
 ! A123  A(60,62,65)           120.0293         estimate D2E/DX2                !
 ! A124  A(62,65,66)           111.1387         estimate D2E/DX2                !
 ! A125  A(62,65,67)           110.188          estimate D2E/DX2                !
 ! A126  A(62,65,68)           111.6445         estimate D2E/DX2                !
 ! A127  A(66,65,67)           107.2918         estimate D2E/DX2                !
 ! A128  A(66,65,68)           108.42           estimate D2E/DX2                !
 ! A129  A(67,65,68)           108.002          estimate D2E/DX2                !
 ! A130  L(12,13,15,4,-1)      186.5893         estimate D2E/DX2                !
 ! A131  L(12,13,15,4,-2)      178.4654         estimate D2E/DX2                !
 ! D1    D(6,1,2,3)              0.6183         estimate D2E/DX2                !
 ! D2    D(6,1,2,35)          -179.7056         estimate D2E/DX2                !
 ! D3    D(34,1,2,3)          -178.7859         estimate D2E/DX2                !
 ! D4    D(34,1,2,35)            0.8902         estimate D2E/DX2                !
 ! D5    D(2,1,6,5)             -0.8005         estimate D2E/DX2                !
 ! D6    D(2,1,6,7)            179.4031         estimate D2E/DX2                !
 ! D7    D(34,1,6,5)           178.6078         estimate D2E/DX2                !
 ! D8    D(34,1,6,7)            -1.1886         estimate D2E/DX2                !
 ! D9    D(1,2,3,4)              0.0906         estimate D2E/DX2                !
 ! D10   D(1,2,3,36)           179.6519         estimate D2E/DX2                !
 ! D11   D(35,2,3,4)          -179.5846         estimate D2E/DX2                !
 ! D12   D(35,2,3,36)           -0.0233         estimate D2E/DX2                !
 ! D13   D(2,3,4,5)             -0.619          estimate D2E/DX2                !
 ! D14   D(2,3,4,37)           179.1777         estimate D2E/DX2                !
 ! D15   D(2,3,4,39)            66.3743         estimate D2E/DX2                !
 ! D16   D(36,3,4,5)           179.8198         estimate D2E/DX2                !
 ! D17   D(36,3,4,37)           -0.3835         estimate D2E/DX2                !
 ! D18   D(36,3,4,39)         -113.1869         estimate D2E/DX2                !
 ! D19   D(3,4,5,6)              0.4342         estimate D2E/DX2                !
 ! D20   D(3,4,5,54)           179.7376         estimate D2E/DX2                !
 ! D21   D(37,4,5,6)          -179.3634         estimate D2E/DX2                !
 ! D22   D(37,4,5,54)           -0.06           estimate D2E/DX2                !
 ! D23   D(39,4,5,6)           -64.4018         estimate D2E/DX2                !
 ! D24   D(39,4,5,54)          114.9016         estimate D2E/DX2                !
 ! D25   D(3,4,39,19)           72.5342         estimate D2E/DX2                !
 ! D26   D(5,4,39,19)         -161.7674         estimate D2E/DX2                !
 ! D27   D(37,4,39,19)         -43.9299         estimate D2E/DX2                !
 ! D28   D(4,5,6,1)              0.2721         estimate D2E/DX2                !
 ! D29   D(4,5,6,7)           -179.938          estimate D2E/DX2                !
 ! D30   D(54,5,6,1)          -179.0414         estimate D2E/DX2                !
 ! D31   D(54,5,6,7)             0.7486         estimate D2E/DX2                !
 ! D32   D(4,5,54,25)          -94.6886         estimate D2E/DX2                !
 ! D33   D(6,5,54,25)           84.6192         estimate D2E/DX2                !
 ! D34   D(1,6,7,11)          -178.5833         estimate D2E/DX2                !
 ! D35   D(1,6,7,38)             1.4684         estimate D2E/DX2                !
 ! D36   D(5,6,7,11)             1.6242         estimate D2E/DX2                !
 ! D37   D(5,6,7,38)          -178.3241         estimate D2E/DX2                !
 ! D38   D(6,7,11,10)         -179.8163         estimate D2E/DX2                !
 ! D39   D(38,7,11,10)           0.1297         estimate D2E/DX2                !
 ! D40   D(6,7,38,12)           75.7383         estimate D2E/DX2                !
 ! D41   D(11,7,38,12)        -104.2103         estimate D2E/DX2                !
 ! D42   D(8,10,11,7)           -2.7386         estimate D2E/DX2                !
 ! D43   D(9,10,11,7)         -133.6771         estimate D2E/DX2                !
 ! D44   D(55,10,11,7)         112.5608         estimate D2E/DX2                !
 ! D45   D(8,10,55,56)        -154.6242         estimate D2E/DX2                !
 ! D46   D(8,10,55,57)          29.3126         estimate D2E/DX2                !
 ! D47   D(9,10,55,56)         -23.3406         estimate D2E/DX2                !
 ! D48   D(9,10,55,57)         160.5962         estimate D2E/DX2                !
 ! D49   D(11,10,55,56)         87.8657         estimate D2E/DX2                !
 ! D50   D(11,10,55,57)        -88.1976         estimate D2E/DX2                !
 ! D51   D(38,12,15,18)        -74.6813         estimate D2E/DX2                !
 ! D52   D(13,12,38,7)          28.5474         estimate D2E/DX2                !
 ! D53   D(19,14,18,15)         76.3239         estimate D2E/DX2                !
 ! D54   D(19,14,18,16)        -51.4967         estimate D2E/DX2                !
 ! D55   D(19,14,18,17)       -167.1601         estimate D2E/DX2                !
 ! D56   D(23,14,18,15)        -98.2909         estimate D2E/DX2                !
 ! D57   D(23,14,18,16)        133.8885         estimate D2E/DX2                !
 ! D58   D(23,14,18,17)         18.2251         estimate D2E/DX2                !
 ! D59   D(18,14,19,20)       -175.1016         estimate D2E/DX2                !
 ! D60   D(18,14,19,39)          5.442          estimate D2E/DX2                !
 ! D61   D(23,14,19,20)         -0.4142         estimate D2E/DX2                !
 ! D62   D(23,14,19,39)       -179.8706         estimate D2E/DX2                !
 ! D63   D(18,14,23,22)        175.2413         estimate D2E/DX2                !
 ! D64   D(18,14,23,43)         -5.0595         estimate D2E/DX2                !
 ! D65   D(19,14,23,22)          0.7158         estimate D2E/DX2                !
 ! D66   D(19,14,23,43)       -179.5849         estimate D2E/DX2                !
 ! D67   D(13,15,18,14)        -53.5732         estimate D2E/DX2                !
 ! D68   D(13,15,18,16)         69.6423         estimate D2E/DX2                !
 ! D69   D(13,15,18,17)       -173.5693         estimate D2E/DX2                !
 ! D70   D(24,16,18,14)        153.7488         estimate D2E/DX2                !
 ! D71   D(24,16,18,15)         26.1615         estimate D2E/DX2                !
 ! D72   D(24,16,18,17)        -88.7074         estimate D2E/DX2                !
 ! D73   D(28,16,18,14)        -31.3571         estimate D2E/DX2                !
 ! D74   D(28,16,18,15)       -158.9444         estimate D2E/DX2                !
 ! D75   D(28,16,18,17)         86.1868         estimate D2E/DX2                !
 ! D76   D(18,16,24,25)        174.4391         estimate D2E/DX2                !
 ! D77   D(18,16,24,44)         -5.6646         estimate D2E/DX2                !
 ! D78   D(28,16,24,25)         -0.5599         estimate D2E/DX2                !
 ! D79   D(28,16,24,44)        179.3364         estimate D2E/DX2                !
 ! D80   D(18,16,28,27)       -173.9322         estimate D2E/DX2                !
 ! D81   D(18,16,28,48)          6.5439         estimate D2E/DX2                !
 ! D82   D(24,16,28,27)          0.846          estimate D2E/DX2                !
 ! D83   D(24,16,28,48)       -178.6778         estimate D2E/DX2                !
 ! D84   D(29,17,18,14)         65.4952         estimate D2E/DX2                !
 ! D85   D(29,17,18,15)       -171.5089         estimate D2E/DX2                !
 ! D86   D(29,17,18,16)        -49.4732         estimate D2E/DX2                !
 ! D87   D(33,17,18,14)       -115.4385         estimate D2E/DX2                !
 ! D88   D(33,17,18,15)          7.5574         estimate D2E/DX2                !
 ! D89   D(33,17,18,16)        129.5931         estimate D2E/DX2                !
 ! D90   D(18,17,29,30)        179.418          estimate D2E/DX2                !
 ! D91   D(18,17,29,49)         -0.2749         estimate D2E/DX2                !
 ! D92   D(33,17,29,30)          0.3524         estimate D2E/DX2                !
 ! D93   D(33,17,29,49)       -179.3405         estimate D2E/DX2                !
 ! D94   D(18,17,33,32)       -178.8771         estimate D2E/DX2                !
 ! D95   D(18,17,33,53)          0.6396         estimate D2E/DX2                !
 ! D96   D(29,17,33,32)          0.1848         estimate D2E/DX2                !
 ! D97   D(29,17,33,53)        179.7015         estimate D2E/DX2                !
 ! D98   D(14,19,20,21)         -0.0691         estimate D2E/DX2                !
 ! D99   D(14,19,20,40)       -179.9345         estimate D2E/DX2                !
 ! D100  D(39,19,20,21)        179.392          estimate D2E/DX2                !
 ! D101  D(39,19,20,40)         -0.4735         estimate D2E/DX2                !
 ! D102  D(14,19,39,4)         121.0966         estimate D2E/DX2                !
 ! D103  D(20,19,39,4)         -58.3603         estimate D2E/DX2                !
 ! D104  D(19,20,21,22)          0.2513         estimate D2E/DX2                !
 ! D105  D(19,20,21,41)       -179.7449         estimate D2E/DX2                !
 ! D106  D(40,20,21,22)       -179.8844         estimate D2E/DX2                !
 ! D107  D(40,20,21,41)          0.1194         estimate D2E/DX2                !
 ! D108  D(20,21,22,23)          0.0521         estimate D2E/DX2                !
 ! D109  D(20,21,22,42)       -179.9555         estimate D2E/DX2                !
 ! D110  D(41,21,22,23)       -179.9518         estimate D2E/DX2                !
 ! D111  D(41,21,22,42)          0.0406         estimate D2E/DX2                !
 ! D112  D(21,22,23,14)         -0.5344         estimate D2E/DX2                !
 ! D113  D(21,22,23,43)        179.765          estimate D2E/DX2                !
 ! D114  D(42,22,23,14)        179.4732         estimate D2E/DX2                !
 ! D115  D(42,22,23,43)         -0.2274         estimate D2E/DX2                !
 ! D116  D(16,24,25,26)         -0.1592         estimate D2E/DX2                !
 ! D117  D(16,24,25,45)        179.3767         estimate D2E/DX2                !
 ! D118  D(16,24,25,54)         72.9282         estimate D2E/DX2                !
 ! D119  D(44,24,25,26)        179.9452         estimate D2E/DX2                !
 ! D120  D(44,24,25,45)         -0.5189         estimate D2E/DX2                !
 ! D121  D(44,24,25,54)       -106.9674         estimate D2E/DX2                !
 ! D122  D(16,24,44,56)       -173.185          estimate D2E/DX2                !
 ! D123  D(16,24,44,58)        151.9435         estimate D2E/DX2                !
 ! D124  D(25,24,44,56)          6.7108         estimate D2E/DX2                !
 ! D125  D(25,24,44,58)        -28.1607         estimate D2E/DX2                !
 ! D126  D(24,25,26,27)          0.5936         estimate D2E/DX2                !
 ! D127  D(24,25,26,46)       -179.8701         estimate D2E/DX2                !
 ! D128  D(45,25,26,27)       -178.9388         estimate D2E/DX2                !
 ! D129  D(45,25,26,46)          0.5975         estimate D2E/DX2                !
 ! D130  D(54,25,26,27)        -80.2944         estimate D2E/DX2                !
 ! D131  D(54,25,26,46)         99.2419         estimate D2E/DX2                !
 ! D132  D(24,25,54,5)         -20.036          estimate D2E/DX2                !
 ! D133  D(26,25,54,5)         101.2212         estimate D2E/DX2                !
 ! D134  D(45,25,54,5)        -140.5589         estimate D2E/DX2                !
 ! D135  D(25,26,27,28)         -0.3056         estimate D2E/DX2                !
 ! D136  D(25,26,27,47)        179.3967         estimate D2E/DX2                !
 ! D137  D(46,26,27,28)       -179.8421         estimate D2E/DX2                !
 ! D138  D(46,26,27,47)         -0.1398         estimate D2E/DX2                !
 ! D139  D(26,27,28,16)         -0.4131         estimate D2E/DX2                !
 ! D140  D(26,27,28,48)        179.1144         estimate D2E/DX2                !
 ! D141  D(47,27,28,16)        179.8833         estimate D2E/DX2                !
 ! D142  D(47,27,28,48)         -0.5891         estimate D2E/DX2                !
 ! D143  D(17,29,30,31)         -0.5821         estimate D2E/DX2                !
 ! D144  D(17,29,30,50)        179.835          estimate D2E/DX2                !
 ! D145  D(49,29,30,31)        179.1139         estimate D2E/DX2                !
 ! D146  D(49,29,30,50)         -0.469          estimate D2E/DX2                !
 ! D147  D(29,30,31,32)          0.2765         estimate D2E/DX2                !
 ! D148  D(29,30,31,51)       -179.6045         estimate D2E/DX2                !
 ! D149  D(50,30,31,32)        179.8574         estimate D2E/DX2                !
 ! D150  D(50,30,31,51)         -0.0236         estimate D2E/DX2                !
 ! D151  D(30,31,32,33)          0.264          estimate D2E/DX2                !
 ! D152  D(30,31,32,52)       -179.9046         estimate D2E/DX2                !
 ! D153  D(51,31,32,33)       -179.8551         estimate D2E/DX2                !
 ! D154  D(51,31,32,52)         -0.0236         estimate D2E/DX2                !
 ! D155  D(31,32,33,17)         -0.4922         estimate D2E/DX2                !
 ! D156  D(31,32,33,53)        179.998          estimate D2E/DX2                !
 ! D157  D(52,32,33,17)        179.6755         estimate D2E/DX2                !
 ! D158  D(52,32,33,53)          0.1657         estimate D2E/DX2                !
 ! D159  D(24,44,56,55)        122.3089         estimate D2E/DX2                !
 ! D160  D(24,44,56,59)          6.7268         estimate D2E/DX2                !
 ! D161  D(24,44,58,62)       -141.3098         estimate D2E/DX2                !
 ! D162  D(24,44,58,63)        -25.6221         estimate D2E/DX2                !
 ! D163  D(10,55,56,44)       -111.0023         estimate D2E/DX2                !
 ! D164  D(10,55,56,58)       -174.5838         estimate D2E/DX2                !
 ! D165  D(10,55,56,59)          5.1022         estimate D2E/DX2                !
 ! D166  D(57,55,56,44)         64.9612         estimate D2E/DX2                !
 ! D167  D(57,55,56,58)          1.3797         estimate D2E/DX2                !
 ! D168  D(57,55,56,59)       -178.9344         estimate D2E/DX2                !
 ! D169  D(10,55,57,60)        174.5018         estimate D2E/DX2                !
 ! D170  D(10,55,57,61)         -3.7678         estimate D2E/DX2                !
 ! D171  D(56,55,57,60)         -1.491          estimate D2E/DX2                !
 ! D172  D(56,55,57,61)       -179.7606         estimate D2E/DX2                !
 ! D173  D(55,56,58,62)          0.2688         estimate D2E/DX2                !
 ! D174  D(55,56,58,63)        179.4573         estimate D2E/DX2                !
 ! D175  D(59,56,58,62)       -179.4149         estimate D2E/DX2                !
 ! D176  D(59,56,58,63)         -0.2265         estimate D2E/DX2                !
 ! D177  D(55,57,60,62)         -0.0451         estimate D2E/DX2                !
 ! D178  D(55,57,60,64)       -178.4464         estimate D2E/DX2                !
 ! D179  D(61,57,60,62)        178.2169         estimate D2E/DX2                !
 ! D180  D(61,57,60,64)         -0.1844         estimate D2E/DX2                !
 ! D181  D(44,58,62,60)        -63.592          estimate D2E/DX2                !
 ! D182  D(44,58,62,65)        114.8168         estimate D2E/DX2                !
 ! D183  D(56,58,62,60)         -1.7434         estimate D2E/DX2                !
 ! D184  D(56,58,62,65)        176.6653         estimate D2E/DX2                !
 ! D185  D(63,58,62,60)        179.0707         estimate D2E/DX2                !
 ! D186  D(63,58,62,65)         -2.5206         estimate D2E/DX2                !
 ! D187  D(57,60,62,58)          1.6304         estimate D2E/DX2                !
 ! D188  D(57,60,62,65)       -176.7983         estimate D2E/DX2                !
 ! D189  D(64,60,62,58)       -179.9742         estimate D2E/DX2                !
 ! D190  D(64,60,62,65)          1.5971         estimate D2E/DX2                !
 ! D191  D(58,62,65,66)        132.925          estimate D2E/DX2                !
 ! D192  D(58,62,65,67)       -108.2781         estimate D2E/DX2                !
 ! D193  D(58,62,65,68)         11.733          estimate D2E/DX2                !
 ! D194  D(60,62,65,66)        -48.6871         estimate D2E/DX2                !
 ! D195  D(60,62,65,67)         70.1098         estimate D2E/DX2                !
 ! D196  D(60,62,65,68)       -169.8791         estimate D2E/DX2                !
 --------------------------------------------------------------------------------
 Stoichiometry    C33H28N3O2PS
 Framework group  C1[X(C33H28N3O2PS)]
 Deg. of freedom   198
 Full point group                 C1      NOp   1
 Largest Abelian subgroup         C1      NOp   1
 Largest concise Abelian subgroup C1      NOp   1
                         Standard orientation:                         
 ---------------------------------------------------------------------
 Center     Atomic      Atomic             Coordinates (Angstroms)
 Number     Number       Type             X           Y           Z
 ---------------------------------------------------------------------
      1          6           0       -1.451723    3.873936   -0.902844
      2          6           0       -0.581712    4.866808   -0.466334
      3          6           0       -0.113971    4.850012    0.846669
      4          6           0       -0.514234    3.839935    1.722760
      5          6           0       -1.391190    2.853850    1.292813
      6          6           0       -1.867238    2.867751   -0.023573
      7          6           0       -2.793768    1.847278   -0.515219
      8          8           0       -4.581622    0.157174   -1.865257
      9          8           0       -5.407287   -0.346036    0.458478
     10         16           0       -4.294580   -0.192206   -0.473152
     11          7           0       -3.235814    0.911883    0.244900
     12          6           0       -0.695433    0.935248   -2.605205
     13          7           0        0.042163    0.185812   -2.074771
     14          6           0        2.772843    1.166478   -0.644991
     15          7           0        0.842586   -0.762318   -1.590566
     16          6           0        0.883038   -0.004134    1.208399
     17          6           0        2.849526   -1.732856   -0.065477
     18         15           0        1.776354   -0.310110   -0.340476
     19          6           0        2.139761    2.415716   -0.609876
     20          6           0        2.854221    3.561455   -0.939783
     21          6           0        4.196132    3.466785   -1.302715
     22          6           0        4.826523    2.225045   -1.341918
     23          6           0        4.116692    1.072846   -1.019239
     24          6           0       -0.328504   -0.670611    1.402175
     25          6           0       -0.993339   -0.560430    2.618819
     26          6           0       -0.449497    0.210803    3.642950
     27          6           0        0.755602    0.884637    3.449002
     28          6           0        1.421581    0.782847    2.232573
     29          6           0        3.676715   -1.769546    1.061623
     30          6           0        4.496308   -2.870304    1.282970
     31          6           0        4.483133   -3.939269    0.388777
     32          6           0        3.654870   -3.906036   -0.730355
     33          6           0        2.839720   -2.802240   -0.964572
     34          1           0       -1.805239    3.868498   -1.929448
     35          1           0       -0.265003    5.648581   -1.149320
     36          1           0        0.569986    5.621784    1.186927
     37          1           0       -0.139017    3.820296    2.740855
     38          1           0       -3.093916    1.916288   -1.564016
     39          1           0        1.096433    2.497768   -0.318204
     40          1           0        2.360363    4.527280   -0.910277
     41          1           0        4.752732    4.363837   -1.555862
     42          1           0        5.871928    2.152487   -1.624028
     43          1           0        4.609754    0.106063   -1.054417
     44          1           0       -0.746318   -1.270589    0.600486
     45          1           0       -1.939291   -1.071996    2.760705
     46          1           0       -0.968768    0.293983    4.592712
     47          1           0        1.174681    1.493634    4.243707
     48          1           0        2.352573    1.321409    2.082008
     49          1           0        3.681616   -0.946363    1.770566
     50          1           0        5.139565   -2.896223    2.156455
     51          1           0        5.119127   -4.800831    0.566730
     52          1           0        3.643611   -4.739225   -1.425731
     53          1           0        2.190412   -2.764117   -1.832192
     54          1           0       -1.706178    2.061479    1.962875
     55          6           0       -3.300612   -1.658070   -0.445411
     56          6           0       -3.325991   -2.485405    0.672949
     57          6           0       -2.446076   -1.911877   -1.515328
     58          6           0       -2.456000   -3.569416    0.726237
     59          1           0       -4.011306   -2.280336    1.488579
     60          6           0       -1.583900   -2.996785   -1.442791
     61          1           0       -2.437467   -1.253851   -2.376785
     62          6           0       -1.563138   -3.829179   -0.318135
     63          1           0       -2.463372   -4.214921    1.599721
     64          1           0       -0.897840   -3.184812   -2.262344
     65          6           0       -0.568327   -4.956742   -0.233258
     66          1           0       -0.565068   -5.550350   -1.152923
     67          1           0        0.444584   -4.558469   -0.098756
     68          1           0       -0.783941   -5.622291    0.606679
 ---------------------------------------------------------------------
 Rotational constants (GHZ):           0.1084753           0.0893062           0.0625446
 Electric field and nuclear coordinate derivatives read from checkpoint file.
 Rotating derivatives to standard orientation.
 Full mass-weighted force constant matrix:
 Low frequencies ---   -7.1786   -3.7485   -0.0243   -0.0184    0.0078    7.6867
 Low frequencies ---   12.3917   16.4785   26.8607
 Diagonal vibrational polarizability:
      157.8052656     147.3468679     288.7873212
 Harmonic frequencies (cm**-1), IR intensities (KM/Mole), Raman scattering
 activities (A**4/AMU), depolarization ratios for plane and unpolarized
 incident light, reduced masses (AMU), force constants (mDyne/A),
 and normal coordinates:
                      1                      2                      3
                      A                      A                      A
 Frequencies --     11.3801                15.5998                26.7758
 Red. masses --      3.5439                 6.4585                 5.2178
 Frc consts  --      0.0003                 0.0009                 0.0022
 IR Inten    --      0.0518                 2.2840                 0.2596
  Atom  AN      X      Y      Z        X      Y      Z        X      Y      Z
     1   6     0.01   0.01   0.02     0.02   0.03   0.06     0.03   0.02   0.05
     2   6     0.01   0.00   0.03     0.01   0.03   0.09     0.03   0.01   0.08
     3   6    -0.00  -0.00   0.04    -0.02   0.01   0.10     0.01  -0.03   0.09
     4   6    -0.00  -0.01   0.03    -0.03  -0.01   0.07    -0.01  -0.04   0.06
     5   6    -0.00  -0.01   0.02    -0.01  -0.01   0.04    -0.01  -0.03   0.03
     6   6     0.01   0.00   0.01     0.01   0.01   0.03     0.01   0.00   0.02
     7   6     0.01   0.01   0.00     0.04   0.01  -0.01     0.00   0.02  -0.01
     8   8     0.00   0.02  -0.01     0.18  -0.05  -0.13     0.02   0.05  -0.07
     9   8    -0.01   0.01  -0.02     0.01   0.00  -0.17    -0.06   0.07  -0.10
    10  16    -0.00   0.01  -0.01     0.08  -0.02  -0.10    -0.03   0.05  -0.06
    11   7     0.00   0.00  -0.00     0.04  -0.02  -0.05    -0.03   0.03  -0.03
    12   6    -0.01  -0.02   0.02    -0.01   0.09  -0.04     0.01  -0.07   0.04
    13   7     0.01  -0.02   0.01    -0.04   0.08  -0.02     0.01  -0.08   0.03
    14   6     0.01   0.01  -0.00    -0.03   0.03  -0.02    -0.02  -0.02  -0.01
    15   7     0.02  -0.01  -0.01    -0.06   0.06  -0.01     0.01  -0.08   0.03
    16   6     0.00  -0.01  -0.01    -0.01   0.02   0.00     0.01  -0.04   0.02
    17   6     0.03   0.01   0.00    -0.06   0.01  -0.05     0.06  -0.01   0.02
    18  15     0.02  -0.00  -0.01    -0.04   0.03  -0.02     0.02  -0.04   0.02
    19   6     0.01   0.00   0.03    -0.01   0.03   0.02    -0.04  -0.03   0.01
    20   6    -0.01   0.01   0.02     0.00   0.03   0.03    -0.07  -0.03  -0.03
    21   6    -0.02   0.02  -0.02    -0.01   0.02  -0.00    -0.09  -0.01  -0.10
    22   6    -0.02   0.02  -0.05    -0.02   0.01  -0.04    -0.07  -0.00  -0.13
    23   6    -0.00   0.01  -0.05    -0.03   0.01  -0.04    -0.04  -0.01  -0.08
    24   6     0.01  -0.02  -0.02     0.00   0.01   0.03    -0.00  -0.02   0.01
    25   6     0.00  -0.03  -0.02     0.03   0.00   0.04    -0.01  -0.02   0.00
    26   6    -0.01  -0.04  -0.02     0.05  -0.00   0.03    -0.00  -0.03   0.01
    27   6    -0.02  -0.02  -0.01     0.04   0.01   0.01     0.01  -0.05   0.02
    28   6    -0.01  -0.01  -0.00     0.01   0.02  -0.01     0.02  -0.05   0.03
    29   6     0.17   0.12  -0.10    -0.03  -0.00  -0.07     0.04   0.00   0.04
    30   6     0.17   0.12  -0.07    -0.06  -0.02  -0.08     0.10   0.04   0.02
    31   6     0.02   0.02   0.06    -0.11  -0.03  -0.07     0.19   0.08  -0.02
    32   6    -0.12  -0.09   0.16    -0.14  -0.02  -0.05     0.22   0.07  -0.04
    33   6    -0.12  -0.09   0.13    -0.11   0.01  -0.04     0.15   0.03  -0.02
    34   1     0.02   0.01   0.02     0.04   0.05   0.05     0.04   0.04   0.04
    35   1     0.01   0.01   0.04     0.01   0.05   0.11     0.04   0.02   0.10
    36   1    -0.00  -0.00   0.04    -0.03   0.01   0.13     0.01  -0.04   0.11
    37   1    -0.01  -0.01   0.03    -0.05  -0.03   0.08    -0.02  -0.07   0.06
    38   1     0.01   0.01   0.00     0.06   0.03  -0.02     0.03   0.04  -0.02
    39   1     0.02  -0.00   0.06    -0.00   0.04   0.04    -0.02  -0.04   0.07
    40   1    -0.01   0.01   0.05     0.01   0.04   0.05    -0.08  -0.03  -0.01
    41   1    -0.03   0.02  -0.02     0.00   0.01   0.00    -0.11  -0.01  -0.14
    42   1    -0.02   0.03  -0.09    -0.03   0.00  -0.06    -0.09   0.01  -0.18
    43   1    -0.00   0.02  -0.08    -0.05   0.01  -0.07    -0.03  -0.00  -0.10
    44   1     0.02  -0.02  -0.03    -0.01   0.01   0.03    -0.01  -0.01   0.00
    45   1     0.01  -0.04  -0.03     0.04  -0.01   0.06    -0.02  -0.00  -0.00
    46   1    -0.02  -0.05  -0.02     0.07  -0.01   0.05    -0.01  -0.03   0.01
    47   1    -0.03  -0.02  -0.00     0.05   0.01   0.00     0.01  -0.06   0.03
    48   1    -0.02   0.00   0.00     0.01   0.03  -0.02     0.03  -0.07   0.03
    49   1     0.29   0.21  -0.20     0.01   0.00  -0.08    -0.03  -0.03   0.07
    50   1     0.28   0.21  -0.15    -0.04  -0.04  -0.10     0.08   0.05   0.03
    51   1     0.02   0.02   0.08    -0.13  -0.05  -0.08     0.24   0.11  -0.04
    52   1    -0.23  -0.17   0.26    -0.18  -0.02  -0.05     0.29   0.10  -0.08
    53   1    -0.22  -0.17   0.21    -0.13   0.02  -0.03     0.17   0.02  -0.03
    54   1    -0.00  -0.01   0.01    -0.02  -0.02   0.02    -0.02  -0.04   0.00
    55   6    -0.01   0.01  -0.01     0.06  -0.03  -0.00    -0.05   0.03  -0.02
    56   6    -0.01   0.01  -0.02     0.01   0.02   0.04    -0.07   0.06  -0.00
    57   6    -0.02  -0.00  -0.02     0.09  -0.10   0.04    -0.04  -0.00  -0.01
    58   6    -0.03  -0.00  -0.02    -0.01   0.00   0.11    -0.08   0.06   0.04
    59   1    -0.01   0.01  -0.01    -0.01   0.07   0.01    -0.08   0.09  -0.02
    60   6    -0.03  -0.01  -0.02     0.06  -0.12   0.11    -0.05  -0.00   0.03
    61   1    -0.02  -0.00  -0.02     0.13  -0.14   0.01    -0.02  -0.02  -0.02
    62   6    -0.04  -0.01  -0.03     0.01  -0.07   0.15    -0.07   0.03   0.05
    63   1    -0.03  -0.01  -0.02    -0.05   0.05   0.15    -0.09   0.08   0.05
    64   1    -0.05  -0.03  -0.03     0.08  -0.18   0.14    -0.03  -0.02   0.05
    65   6    -0.04  -0.02  -0.02    -0.03  -0.09   0.23    -0.08   0.02   0.09
    66   1     0.10   0.09  -0.10    -0.09  -0.19   0.29    -0.25  -0.15   0.19
    67   1    -0.07  -0.03   0.18    -0.00  -0.12   0.13    -0.05   0.01  -0.16
    68   1    -0.16  -0.13  -0.14    -0.01   0.01   0.31     0.04   0.17   0.24
                      4                      5                      6
                      A                      A                      A
 Frequencies --     33.2699                37.5558                49.3412
 Red. masses --      4.9576                 4.5663                 4.2174
 Frc consts  --      0.0032                 0.0038                 0.0060
 IR Inten    --      0.0088                 1.5574                 0.5758
  Atom  AN      X      Y      Z        X      Y      Z        X      Y      Z
     1   6    -0.03   0.01  -0.06    -0.03  -0.04   0.01     0.00  -0.01  -0.05
     2   6    -0.03   0.01  -0.08    -0.01  -0.06   0.02    -0.01   0.01  -0.07
     3   6     0.00   0.01  -0.09    -0.04  -0.07   0.02    -0.05   0.06  -0.06
     4   6     0.03   0.00  -0.08    -0.08  -0.06   0.02    -0.06   0.09  -0.03
     5   6     0.02   0.00  -0.06    -0.09  -0.04   0.01    -0.04   0.06  -0.02
     6   6    -0.01   0.00  -0.05    -0.07  -0.03   0.00    -0.01   0.01  -0.03
     7   6    -0.02   0.00  -0.03    -0.08  -0.01  -0.01     0.00  -0.01  -0.01
     8   8    -0.03  -0.02   0.00    -0.07  -0.02  -0.04     0.00  -0.03   0.02
     9   8    -0.03   0.04   0.01    -0.10  -0.04  -0.06     0.03  -0.02   0.03
    10  16    -0.03   0.01   0.01    -0.09  -0.01  -0.03     0.02  -0.02   0.02
    11   7    -0.01   0.01  -0.02    -0.12   0.00  -0.01     0.02  -0.00  -0.00
    12   6    -0.03  -0.03   0.00    -0.01   0.00   0.03     0.02   0.04   0.01
    13   7    -0.01  -0.01  -0.01     0.01   0.01   0.01    -0.00   0.03   0.03
    14   6     0.02   0.01   0.03     0.05  -0.02  -0.00     0.01  -0.02   0.04
    15   7     0.02   0.00  -0.03     0.02   0.01  -0.01    -0.03   0.02   0.04
    16   6     0.01  -0.03  -0.02     0.04   0.01  -0.01    -0.02   0.01   0.04
    17   6     0.03  -0.00  -0.05     0.02  -0.02  -0.02    -0.01  -0.01   0.01
    18  15     0.02  -0.01  -0.03     0.03  -0.01  -0.01    -0.02  -0.00   0.04
    19   6    -0.00  -0.00  -0.01     0.07  -0.01   0.05     0.09   0.01   0.19
    20   6     0.01   0.01   0.08     0.09  -0.01   0.06     0.11  -0.01   0.19
    21   6     0.05   0.04   0.21     0.08  -0.03   0.03     0.07  -0.06   0.03
    22   6     0.07   0.05   0.25     0.05  -0.04  -0.02    -0.01  -0.09  -0.13
    23   6     0.06   0.04   0.15     0.04  -0.03  -0.04    -0.04  -0.07  -0.12
    24   6     0.01  -0.03  -0.03     0.00   0.07  -0.02    -0.04   0.05   0.01
    25   6     0.00  -0.03  -0.03     0.00   0.08  -0.02    -0.07   0.08  -0.01
    26   6    -0.01  -0.02  -0.03     0.03   0.04  -0.01    -0.08   0.07   0.00
    27   6    -0.00  -0.02  -0.03     0.06  -0.01   0.00    -0.05   0.02   0.03
    28   6     0.00  -0.03  -0.02     0.07  -0.03   0.00    -0.02  -0.01   0.05
    29   6     0.08   0.02  -0.09     0.03  -0.03  -0.03     0.02  -0.01  -0.02
    30   6     0.11   0.03  -0.12     0.02  -0.04  -0.04     0.07   0.02  -0.07
    31   6     0.09   0.02  -0.11    -0.01  -0.04  -0.04     0.07   0.04  -0.10
    32   6     0.03   0.01  -0.08    -0.03  -0.04  -0.02     0.03   0.03  -0.07
    33   6     0.01  -0.01  -0.05    -0.01  -0.02  -0.01    -0.01   0.01  -0.01
    34   1    -0.06   0.01  -0.05    -0.02  -0.04   0.00     0.03  -0.05  -0.06
    35   1    -0.05   0.01  -0.08     0.02  -0.08   0.02    -0.00  -0.02  -0.09
    36   1     0.01   0.01  -0.10    -0.02  -0.09   0.03    -0.07   0.08  -0.07
    37   1     0.06   0.00  -0.09    -0.09  -0.06   0.03    -0.08   0.12  -0.02
    38   1    -0.04  -0.00  -0.03    -0.05  -0.02  -0.02     0.00  -0.02  -0.01
    39   1    -0.03  -0.02  -0.11     0.08   0.00   0.08     0.12   0.05   0.31
    40   1    -0.01   0.00   0.05     0.10  -0.00   0.10     0.17   0.02   0.31
    41   1     0.06   0.06   0.29     0.09  -0.03   0.05     0.09  -0.07   0.03
    42   1     0.10   0.08   0.35     0.04  -0.05  -0.05    -0.05  -0.13  -0.26
    43   1     0.08   0.05   0.18     0.02  -0.04  -0.07    -0.09  -0.10  -0.24
    44   1     0.02  -0.04  -0.03    -0.02   0.10  -0.03    -0.05   0.06   0.01
    45   1     0.00  -0.03  -0.04    -0.02   0.12  -0.04    -0.10   0.11  -0.03
    46   1    -0.01  -0.02  -0.04     0.03   0.05  -0.01    -0.10   0.09  -0.01
    47   1    -0.01  -0.02  -0.03     0.09  -0.04   0.01    -0.05   0.01   0.04
    48   1     0.00  -0.02  -0.02     0.09  -0.07   0.02     0.01  -0.05   0.08
    49   1     0.10   0.02  -0.10     0.06  -0.02  -0.04     0.03  -0.02  -0.01
    50   1     0.15   0.04  -0.15     0.04  -0.04  -0.05     0.10   0.02  -0.10
    51   1     0.11   0.04  -0.14    -0.02  -0.05  -0.04     0.11   0.05  -0.14
    52   1     0.02   0.00  -0.07    -0.05  -0.04  -0.02     0.03   0.05  -0.09
    53   1    -0.03  -0.02  -0.02    -0.03  -0.02  -0.00    -0.04   0.01   0.01
    54   1     0.04  -0.00  -0.06    -0.12  -0.03   0.01    -0.04   0.08  -0.00
    55   6    -0.04   0.00   0.04    -0.04   0.02  -0.01     0.02  -0.02   0.01
    56   6    -0.06   0.02   0.05    -0.00   0.04   0.01     0.01  -0.03   0.00
    57   6    -0.04  -0.03   0.05    -0.03   0.03  -0.00     0.02  -0.01   0.01
    58   6    -0.07   0.01   0.08     0.05   0.09   0.05    -0.00  -0.04  -0.01
    59   1    -0.06   0.04   0.05    -0.02   0.03   0.01     0.01  -0.03   0.00
    60   6    -0.05  -0.04   0.07     0.03   0.07   0.03     0.00  -0.02  -0.01
    61   1    -0.02  -0.04   0.04    -0.06   0.01  -0.02     0.03  -0.00   0.02
    62   6    -0.07  -0.02   0.09     0.07   0.11   0.06    -0.01  -0.04  -0.02
    63   1    -0.08   0.03   0.09     0.08   0.12   0.06    -0.01  -0.05  -0.02
    64   1    -0.05  -0.06   0.08     0.04   0.09   0.04    -0.00  -0.02  -0.01
    65   6    -0.09  -0.04   0.10     0.16   0.19   0.11    -0.04  -0.07  -0.05
    66   1    -0.22  -0.15   0.17     0.40   0.31   0.04    -0.18  -0.15   0.00
    67   1    -0.06  -0.05  -0.07     0.09   0.27   0.37    -0.01  -0.10  -0.20
    68   1    -0.01   0.07   0.21     0.05   0.07  -0.01     0.03   0.00   0.03
                      7                      8                      9
                      A                      A                      A
 Frequencies --     50.0024                59.2696                61.3553
 Red. masses --      4.4977                 3.1068                 5.0346
 Frc consts  --      0.0066                 0.0064                 0.0112
 IR Inten    --      0.4069                 0.6705                 0.8108
  Atom  AN      X      Y      Z        X      Y      Z        X      Y      Z
     1   6     0.07  -0.09   0.04     0.11  -0.06  -0.01     0.04  -0.04   0.03
     2   6     0.07  -0.09   0.05     0.09  -0.05  -0.01     0.07  -0.07   0.04
     3   6     0.00  -0.06   0.08     0.05  -0.01   0.01     0.05  -0.08   0.05
     4   6    -0.06  -0.03   0.09     0.03   0.01   0.02    -0.02  -0.05   0.05
     5   6    -0.06  -0.02   0.07     0.04  -0.00   0.02    -0.05  -0.02   0.04
     6   6     0.00  -0.05   0.05     0.07  -0.03   0.00    -0.01  -0.02   0.03
     7   6     0.00  -0.04   0.04     0.07  -0.03   0.00    -0.02  -0.01   0.02
     8   8    -0.02  -0.01   0.03     0.02   0.02   0.02     0.01  -0.00  -0.03
     9   8    -0.04  -0.02   0.02     0.02   0.03   0.03    -0.02  -0.04  -0.05
    10  16    -0.04  -0.02   0.03     0.02   0.01   0.02    -0.01  -0.02  -0.03
    11   7    -0.04  -0.02   0.04     0.04  -0.00   0.02    -0.03  -0.02   0.00
    12   6     0.01  -0.00  -0.07     0.02   0.00  -0.11    -0.05  -0.00   0.01
    13   7     0.03   0.02  -0.08    -0.01   0.00  -0.07    -0.06   0.00   0.04
    14   6     0.05   0.03  -0.05    -0.04  -0.01  -0.00    -0.01  -0.03  -0.00
    15   7     0.05   0.03  -0.08    -0.04  -0.00  -0.03    -0.08  -0.00   0.06
    16   6    -0.01   0.05  -0.08    -0.07  -0.01  -0.02    -0.02   0.05   0.04
    17   6     0.01   0.05  -0.01    -0.05   0.01  -0.01    -0.05   0.00   0.02
    18  15     0.02   0.05  -0.07    -0.06   0.00  -0.01    -0.05   0.00   0.04
    19   6     0.09   0.05  -0.01    -0.02   0.00  -0.00    -0.00  -0.02  -0.13
    20   6     0.12   0.04   0.02     0.00  -0.01   0.01     0.04  -0.05  -0.14
    21   6     0.12   0.01   0.02     0.01  -0.03   0.02     0.07  -0.08  -0.02
    22   6     0.08  -0.01  -0.02    -0.02  -0.04   0.02     0.06  -0.09   0.11
    23   6     0.05   0.00  -0.06    -0.04  -0.03   0.00     0.02  -0.07   0.12
    24   6     0.01   0.02  -0.08    -0.05  -0.04  -0.01    -0.02   0.07   0.09
    25   6     0.02  -0.01  -0.08    -0.05  -0.06  -0.01     0.01   0.12   0.10
    26   6    -0.00  -0.00  -0.08    -0.07  -0.05  -0.01     0.04   0.15   0.06
    27   6    -0.02   0.04  -0.08    -0.09  -0.02  -0.01     0.04   0.14   0.01
    28   6    -0.03   0.06  -0.08    -0.09   0.00  -0.01     0.01   0.09   0.00
    29   6    -0.04   0.06   0.03    -0.04   0.04  -0.01     0.02   0.04  -0.03
    30   6    -0.06   0.06   0.08     0.01   0.08  -0.02     0.09   0.08  -0.08
    31   6    -0.03   0.04   0.10     0.06   0.09  -0.04     0.09   0.09  -0.09
    32   6     0.03   0.03   0.06     0.05   0.06  -0.03     0.01   0.04  -0.03
    33   6     0.05   0.04   0.00    -0.01   0.02  -0.01    -0.06   0.00   0.02
    34   1     0.12  -0.11   0.02     0.14  -0.08  -0.02     0.06  -0.04   0.02
    35   1     0.12  -0.12   0.05     0.11  -0.06  -0.02     0.12  -0.10   0.03
    36   1     0.00  -0.07   0.09     0.04  -0.01   0.01     0.08  -0.11   0.05
    37   1    -0.11  -0.01   0.11    -0.01   0.03   0.03    -0.04  -0.05   0.06
    38   1     0.04  -0.06   0.02     0.09  -0.05  -0.00    -0.01   0.00   0.02
    39   1     0.09   0.07  -0.01    -0.02   0.02  -0.01    -0.02   0.00  -0.21
    40   1     0.15   0.05   0.06     0.02  -0.00   0.02     0.04  -0.04  -0.24
    41   1     0.15   0.00   0.05     0.02  -0.04   0.04     0.10  -0.11  -0.03
    42   1     0.08  -0.03  -0.03    -0.02  -0.06   0.02     0.08  -0.12   0.21
    43   1     0.02  -0.01  -0.09    -0.06  -0.04  -0.00     0.02  -0.07   0.22
    44   1     0.03   0.00  -0.08    -0.04  -0.05  -0.01    -0.04   0.05   0.12
    45   1     0.03  -0.04  -0.08    -0.04  -0.09  -0.01     0.01   0.13   0.14
    46   1     0.00  -0.02  -0.07    -0.07  -0.07  -0.01     0.06   0.19   0.07
    47   1    -0.04   0.04  -0.08    -0.10  -0.01  -0.01     0.06   0.17  -0.02
    48   1    -0.04   0.09  -0.08    -0.10   0.03  -0.01     0.01   0.08  -0.04
    49   1    -0.07   0.07   0.01    -0.07   0.04  -0.01     0.02   0.04  -0.03
    50   1    -0.11   0.06   0.11     0.02   0.10  -0.03     0.15   0.11  -0.12
    51   1    -0.04   0.04   0.14     0.10   0.12  -0.05     0.15   0.12  -0.13
    52   1     0.06   0.02   0.07     0.08   0.06  -0.04     0.01   0.05  -0.03
    53   1     0.09   0.03  -0.03    -0.01   0.00  -0.01    -0.11  -0.02   0.06
    54   1    -0.11   0.00   0.08     0.01   0.01   0.03    -0.09   0.00   0.05
    55   6    -0.04  -0.02   0.03    -0.01  -0.00   0.01     0.01  -0.01  -0.03
    56   6    -0.05  -0.02   0.02    -0.02  -0.02   0.01     0.03  -0.01  -0.03
    57   6    -0.03  -0.01   0.03     0.01   0.01   0.02    -0.01  -0.01  -0.04
    58   6    -0.06  -0.03   0.02    -0.01  -0.00   0.02     0.02  -0.01  -0.04
    59   1    -0.05  -0.02   0.02    -0.04  -0.03  -0.00     0.04  -0.00  -0.01
    60   6    -0.04  -0.02   0.03     0.02   0.02   0.03    -0.02  -0.02  -0.06
    61   1    -0.02  -0.00   0.04     0.01   0.01   0.03    -0.02  -0.01  -0.04
    62   6    -0.06  -0.04   0.02     0.02   0.02   0.03    -0.01  -0.02  -0.06
    63   1    -0.06  -0.04   0.01    -0.01  -0.01   0.01     0.03  -0.01  -0.04
    64   1    -0.03  -0.02   0.03     0.04   0.03   0.04    -0.04  -0.02  -0.07
    65   6    -0.10  -0.07  -0.01     0.08   0.08   0.08    -0.03  -0.05  -0.10
    66   1    -0.36  -0.25   0.10     0.44   0.30  -0.06    -0.09  -0.05  -0.09
    67   1    -0.04  -0.10  -0.33     0.01   0.13   0.52    -0.01  -0.07  -0.15
    68   1     0.07   0.10   0.17    -0.13  -0.14  -0.15    -0.01  -0.03  -0.08
                     10                     11                     12
                      A                      A                      A
 Frequencies --     66.9263                70.6001                71.3152
 Red. masses --      6.0296                 5.1212                 4.5104
 Frc consts  --      0.0159                 0.0150                 0.0135
 IR Inten    --      1.7073                 1.5177                 0.4241
  Atom  AN      X      Y      Z        X      Y      Z        X      Y      Z
     1   6    -0.03  -0.04  -0.05     0.06  -0.05   0.01    -0.14   0.12   0.07
     2   6    -0.01  -0.05  -0.06     0.04  -0.03   0.02    -0.10   0.10   0.05
     3   6     0.04  -0.08  -0.08    -0.05   0.03   0.05    -0.02   0.04   0.02
     4   6     0.07  -0.09  -0.08    -0.11   0.07   0.07     0.02   0.01   0.01
     5   6     0.05  -0.08  -0.06    -0.08   0.06   0.06    -0.01   0.03   0.02
     6   6    -0.01  -0.05  -0.04     0.01  -0.00   0.03    -0.09   0.09   0.05
     7   6    -0.03  -0.04  -0.03     0.03  -0.02   0.02    -0.08   0.08   0.05
     8   8    -0.06  -0.02  -0.01     0.01  -0.00   0.03     0.04  -0.00  -0.00
     9   8    -0.06  -0.02  -0.01    -0.00  -0.01   0.02     0.02  -0.01  -0.01
    10  16    -0.06  -0.01  -0.01     0.00  -0.00   0.03     0.03  -0.00  -0.00
    11   7    -0.06  -0.01  -0.01    -0.02   0.02   0.04     0.01   0.01   0.01
    12   6     0.14   0.19  -0.02     0.17   0.08  -0.02    -0.09   0.03   0.17
    13   7     0.08   0.15   0.02     0.12   0.03  -0.02    -0.03   0.02   0.07
    14   6     0.04   0.04   0.06     0.02  -0.01   0.04     0.05  -0.02  -0.00
    15   7     0.02   0.11   0.04     0.07  -0.00  -0.01     0.03   0.02  -0.02
    16   6     0.01   0.01   0.07     0.01  -0.02  -0.00    -0.02  -0.01  -0.03
    17   6    -0.00   0.04   0.03     0.04  -0.05  -0.01     0.01  -0.01  -0.00
    18  15     0.02   0.06   0.06     0.05  -0.03   0.02     0.02  -0.00  -0.01
    19   6     0.05   0.05  -0.01    -0.04  -0.04  -0.04     0.07  -0.01  -0.06
    20   6     0.05   0.02  -0.12    -0.11  -0.02  -0.10     0.10  -0.03  -0.10
    21   6     0.04  -0.02  -0.15    -0.10   0.03  -0.08     0.10  -0.07  -0.08
    22   6     0.03  -0.02  -0.08    -0.02   0.06   0.01     0.08  -0.09  -0.02
    23   6     0.03   0.01   0.03     0.04   0.04   0.07     0.05  -0.06   0.02
    24   6     0.04  -0.06   0.06    -0.01   0.01  -0.03     0.01  -0.07  -0.05
    25   6     0.05  -0.13   0.07    -0.08   0.08  -0.08    -0.03  -0.09  -0.07
    26   6     0.02  -0.13   0.09    -0.13   0.13  -0.09    -0.10  -0.03  -0.07
    27   6    -0.02  -0.06   0.10    -0.10   0.10  -0.06    -0.14   0.04  -0.06
    28   6    -0.02   0.00   0.09    -0.03   0.02  -0.01    -0.09   0.05  -0.03
    29   6     0.02   0.02   0.01     0.07  -0.08  -0.03    -0.00  -0.01   0.01
    30   6     0.02   0.01  -0.03     0.05  -0.11  -0.06     0.01   0.00   0.01
    31   6    -0.01   0.02  -0.04     0.01  -0.10  -0.08     0.04   0.01  -0.01
    32   6    -0.04   0.04  -0.02    -0.02  -0.06  -0.05     0.05   0.01  -0.02
    33   6    -0.04   0.05   0.02    -0.00  -0.04  -0.02     0.04   0.00  -0.01
    34   1    -0.07  -0.02  -0.03     0.13  -0.09  -0.01    -0.20   0.17   0.09
    35   1    -0.03  -0.04  -0.06     0.08  -0.06   0.01    -0.13   0.12   0.06
    36   1     0.06  -0.09  -0.10    -0.07   0.04   0.06     0.01   0.01   0.01
    37   1     0.11  -0.11  -0.10    -0.17   0.12   0.10     0.08  -0.03  -0.02
    38   1    -0.02  -0.05  -0.04     0.09  -0.07  -0.00    -0.14   0.13   0.07
    39   1     0.06   0.07   0.00    -0.05  -0.08  -0.06     0.07   0.03  -0.08
    40   1     0.06   0.02  -0.17    -0.16  -0.05  -0.17     0.12  -0.02  -0.14
    41   1     0.03  -0.04  -0.25    -0.14   0.04  -0.13     0.12  -0.10  -0.11
    42   1     0.02  -0.05  -0.10    -0.01   0.11   0.04     0.08  -0.12   0.00
    43   1     0.03   0.00   0.08     0.09   0.07   0.13     0.04  -0.07   0.06
    44   1     0.06  -0.06   0.05     0.02  -0.03  -0.03     0.07  -0.12  -0.05
    45   1     0.08  -0.19   0.07    -0.10   0.11  -0.11     0.00  -0.14  -0.08
    46   1     0.03  -0.19   0.10    -0.19   0.20  -0.13    -0.13  -0.03  -0.09
    47   1    -0.04  -0.07   0.11    -0.14   0.13  -0.06    -0.20   0.08  -0.06
    48   1    -0.05   0.06   0.09    -0.02  -0.00   0.02    -0.12   0.10  -0.02
    49   1     0.05   0.01   0.02     0.11  -0.09  -0.02    -0.02  -0.01   0.02
    50   1     0.05  -0.00  -0.05     0.08  -0.13  -0.08    -0.00  -0.00   0.02
    51   1    -0.01   0.02  -0.07    -0.01  -0.11  -0.10     0.05   0.02  -0.01
    52   1    -0.07   0.05  -0.03    -0.06  -0.05  -0.06     0.08   0.02  -0.03
    53   1    -0.05   0.07   0.03    -0.02  -0.02  -0.00     0.05   0.00  -0.02
    54   1     0.06  -0.08  -0.06    -0.12   0.08   0.07     0.02   0.01   0.01
    55   6    -0.04  -0.00   0.00     0.01   0.01   0.03     0.03  -0.00   0.01
    56   6    -0.12  -0.06  -0.04    -0.05  -0.04  -0.00     0.01  -0.01   0.01
    57   6     0.05   0.07   0.06     0.07   0.05   0.06     0.03  -0.02   0.01
    58   6    -0.12  -0.06  -0.03    -0.05  -0.05  -0.01    -0.01  -0.02   0.01
    59   1    -0.18  -0.10  -0.08    -0.09  -0.08  -0.03     0.00   0.00  -0.00
    60   6     0.05   0.07   0.07     0.06   0.05   0.06     0.01  -0.03   0.02
    61   1     0.12   0.12   0.10     0.11   0.09   0.09     0.04  -0.02   0.01
    62   6    -0.04   0.00   0.02    -0.00  -0.01   0.02    -0.00  -0.03   0.02
    63   1    -0.18  -0.10  -0.07    -0.10  -0.09  -0.04    -0.03  -0.02   0.01
    64   1     0.12   0.13   0.11     0.10   0.09   0.09     0.01  -0.04   0.02
    65   6    -0.05  -0.01   0.02    -0.02  -0.02   0.02     0.00  -0.02   0.05
    66   1    -0.10  -0.04   0.04    -0.00   0.00   0.00     0.22   0.13  -0.05
    67   1    -0.04  -0.02  -0.03    -0.02  -0.04   0.05    -0.04  -0.02   0.33
    68   1    -0.04   0.02   0.05    -0.05  -0.04  -0.00    -0.16  -0.16  -0.11
                     13                     14                     15
                      A                      A                      A
 Frequencies --     76.3114                82.6251                88.1816
 Red. masses --      1.9186                 3.4714                 4.4444
 Frc consts  --      0.0066                 0.0140                 0.0204
 IR Inten    --      0.4304                 0.2566                 1.3740
  Atom  AN      X      Y      Z        X      Y      Z        X      Y      Z
     1   6    -0.01   0.00  -0.01     0.04  -0.04  -0.01    -0.09   0.06   0.04
     2   6    -0.03   0.01  -0.00     0.07  -0.06  -0.02    -0.09   0.06   0.02
     3   6    -0.04   0.02   0.00     0.08  -0.06  -0.02    -0.01   0.03  -0.01
     4   6    -0.03   0.02   0.00     0.06  -0.04  -0.01     0.05   0.00  -0.01
     5   6    -0.02   0.01  -0.00     0.02  -0.02   0.00     0.03   0.00   0.01
     6   6    -0.01  -0.00  -0.01     0.02  -0.02   0.00    -0.03   0.03   0.04
     7   6     0.00  -0.01  -0.01    -0.00  -0.01   0.01    -0.02   0.01   0.04
     8   8     0.00  -0.00  -0.01     0.01  -0.01  -0.00     0.03  -0.00   0.01
     9   8    -0.01   0.01  -0.01     0.00  -0.00  -0.00     0.00  -0.02   0.00
    10  16    -0.01   0.00  -0.01     0.01  -0.01  -0.00     0.01  -0.01   0.01
    11   7    -0.00  -0.00  -0.01     0.02  -0.02  -0.00    -0.00  -0.00   0.03
    12   6     0.03   0.00  -0.02    -0.08  -0.04   0.06     0.10   0.13  -0.05
    13   7     0.02  -0.01  -0.01    -0.02   0.01   0.05     0.04   0.05  -0.07
    14   6     0.00  -0.00  -0.02     0.03   0.05   0.03    -0.02  -0.04  -0.03
    15   7    -0.00  -0.01   0.00     0.03   0.04   0.03    -0.03  -0.00  -0.06
    16   6     0.03   0.00   0.00     0.01   0.03   0.01    -0.03  -0.01  -0.04
    17   6     0.01  -0.00  -0.00     0.03   0.04   0.01    -0.03  -0.01  -0.00
    18  15     0.01  -0.01  -0.01     0.03   0.05   0.03    -0.04  -0.03  -0.04
    19   6     0.00   0.00   0.02     0.02   0.04   0.00    -0.02  -0.03  -0.05
    20   6     0.00   0.01   0.04    -0.01   0.04  -0.05    -0.00  -0.04  -0.04
    21   6     0.00   0.01   0.04    -0.01   0.05  -0.06     0.01  -0.05   0.01
    22   6    -0.00   0.01   0.00     0.01   0.06  -0.02     0.01  -0.05   0.04
    23   6    -0.00   0.01  -0.03     0.03   0.06   0.02    -0.01  -0.04   0.02
    24   6     0.04  -0.01   0.04    -0.05   0.12  -0.07    -0.11   0.14  -0.07
    25   6     0.07   0.01   0.05    -0.09   0.11  -0.09    -0.09   0.15  -0.06
    26   6     0.08   0.04   0.03    -0.07   0.00  -0.03     0.03   0.00  -0.01
    27   6     0.07   0.05  -0.01    -0.00  -0.09   0.06     0.12  -0.15   0.02
    28   6     0.05   0.03  -0.03     0.03  -0.07   0.08     0.09  -0.15   0.00
    29   6    -0.02  -0.02   0.02     0.01  -0.01   0.02    -0.03   0.04   0.00
    30   6    -0.02  -0.01   0.02    -0.02  -0.03   0.01     0.01   0.08   0.03
    31   6     0.01  -0.00   0.01    -0.03  -0.01  -0.02     0.05   0.06   0.06
    32   6     0.04   0.01  -0.01    -0.01   0.04  -0.04     0.05  -0.00   0.06
    33   6     0.04   0.01  -0.02     0.02   0.06  -0.02     0.01  -0.04   0.03
    34   1    -0.01  -0.01  -0.01     0.03  -0.03  -0.00    -0.15   0.08   0.06
    35   1    -0.04   0.02   0.00     0.09  -0.07  -0.03    -0.14   0.08   0.03
    36   1    -0.06   0.04   0.01     0.11  -0.08  -0.04     0.00   0.02  -0.02
    37   1    -0.04   0.03   0.01     0.06  -0.05  -0.02     0.10  -0.02  -0.03
    38   1     0.01  -0.02  -0.01    -0.03   0.01   0.02    -0.02   0.01   0.04
    39   1     0.00  -0.00   0.02     0.02   0.03   0.01    -0.03  -0.03  -0.09
    40   1     0.01   0.01   0.07    -0.02   0.04  -0.07    -0.00  -0.04  -0.06
    41   1     0.01   0.02   0.06    -0.03   0.05  -0.10     0.02  -0.05   0.03
    42   1    -0.00   0.02  -0.01     0.01   0.07  -0.03     0.02  -0.05   0.08
    43   1    -0.00   0.01  -0.05     0.05   0.07   0.04    -0.01  -0.05   0.04
    44   1     0.03  -0.03   0.06    -0.07   0.19  -0.12    -0.20   0.24  -0.10
    45   1     0.08   0.01   0.08    -0.14   0.19  -0.16    -0.16   0.28  -0.09
    46   1     0.10   0.06   0.03    -0.10  -0.01  -0.04     0.05   0.00   0.00
    47   1     0.08   0.07  -0.04     0.02  -0.17   0.11     0.22  -0.27   0.06
    48   1     0.04   0.03  -0.06     0.08  -0.13   0.14     0.15  -0.25   0.03
    49   1    -0.04  -0.03   0.03     0.01  -0.03   0.05    -0.06   0.06  -0.02
    50   1    -0.04  -0.02   0.04    -0.04  -0.07   0.02     0.01   0.13   0.03
    51   1     0.01   0.00   0.01    -0.05  -0.03  -0.03     0.08   0.09   0.08
    52   1     0.06   0.02  -0.02    -0.02   0.06  -0.06     0.08  -0.02   0.09
    53   1     0.06   0.01  -0.03     0.02   0.09  -0.02     0.01  -0.08   0.02
    54   1    -0.01   0.00  -0.00     0.00  -0.00   0.01     0.07  -0.01   0.02
    55   6    -0.02  -0.00   0.00    -0.01  -0.02   0.00     0.01  -0.01   0.01
    56   6    -0.05  -0.03  -0.02     0.02   0.01   0.03    -0.04  -0.05  -0.02
    57   6     0.00   0.01   0.01    -0.06  -0.07  -0.03     0.06   0.03   0.04
    58   6    -0.08  -0.05  -0.03     0.00  -0.00   0.03    -0.04  -0.05  -0.02
    59   1    -0.07  -0.03  -0.03     0.05   0.04   0.04    -0.08  -0.08  -0.05
    60   6    -0.02  -0.01   0.01    -0.08  -0.09  -0.03     0.06   0.03   0.04
    61   1     0.03   0.02   0.03    -0.08  -0.10  -0.05     0.11   0.06   0.07
    62   6    -0.06  -0.04  -0.02    -0.04  -0.05  -0.00     0.01  -0.02   0.01
    63   1    -0.12  -0.08  -0.05     0.02   0.02   0.05    -0.09  -0.09  -0.05
    64   1    -0.01  -0.01   0.02    -0.13  -0.14  -0.06     0.11   0.07   0.07
    65   6    -0.08  -0.05  -0.01    -0.05  -0.06   0.01    -0.01  -0.03   0.01
    66   1     0.29   0.25  -0.20     0.20   0.14  -0.12    -0.03  -0.04   0.02
    67   1    -0.14  -0.07   0.50    -0.09  -0.07   0.35     0.00  -0.04  -0.01
    68   1    -0.37  -0.33  -0.30    -0.25  -0.24  -0.19    -0.00  -0.02   0.02
                     16                     17                     18
                      A                      A                      A
 Frequencies --     97.8583               100.9019               107.9004
 Red. masses --      4.4775                 6.0707                 5.2524
 Frc consts  --      0.0253                 0.0364                 0.0360
 IR Inten    --      0.4071                 1.6593                 3.2258
  Atom  AN      X      Y      Z        X      Y      Z        X      Y      Z
     1   6    -0.02   0.03   0.03    -0.01  -0.13   0.00    -0.06  -0.01   0.02
     2   6     0.06  -0.04   0.01     0.01  -0.09  -0.15    -0.00  -0.04  -0.03
     3   6     0.17  -0.13  -0.03     0.04   0.07  -0.16     0.08  -0.06  -0.06
     4   6     0.18  -0.15  -0.05     0.05   0.19  -0.03     0.10  -0.05  -0.04
     5   6     0.08  -0.08  -0.03     0.03   0.14   0.13     0.04  -0.02   0.01
     6   6    -0.01   0.00   0.01    -0.01  -0.02   0.14    -0.03  -0.00   0.04
     7   6    -0.05   0.03   0.02    -0.01  -0.04   0.20    -0.04   0.00   0.06
     8   8    -0.01  -0.01  -0.00     0.18   0.11  -0.03     0.05  -0.02  -0.02
     9   8     0.01  -0.02  -0.00    -0.13  -0.07  -0.18    -0.07  -0.06  -0.07
    10  16     0.00  -0.01  -0.01    -0.00   0.01  -0.02    -0.02  -0.00   0.00
    11   7     0.01  -0.01  -0.01    -0.09  -0.02   0.19    -0.11   0.04   0.07
    12   6    -0.08   0.01   0.11    -0.11  -0.08   0.05     0.21   0.23  -0.02
    13   7    -0.05  -0.00   0.05    -0.05  -0.04   0.03     0.09   0.10  -0.03
    14   6    -0.02  -0.00  -0.02    -0.00   0.01  -0.00    -0.02  -0.03  -0.01
    15   7    -0.02  -0.01  -0.01     0.00  -0.01  -0.00    -0.02   0.01  -0.02
    16   6     0.00  -0.00  -0.01     0.00  -0.00  -0.00    -0.00  -0.02  -0.01
    17   6     0.01  -0.01  -0.02     0.01   0.00  -0.01    -0.01  -0.03   0.00
    18  15    -0.00  -0.01  -0.02     0.00   0.00  -0.00    -0.01  -0.03  -0.01
    19   6    -0.03  -0.01   0.06    -0.00   0.00   0.00    -0.03  -0.04   0.03
    20   6    -0.04   0.01   0.11    -0.01   0.01   0.00    -0.05  -0.02   0.06
    21   6    -0.05   0.04   0.07    -0.01   0.01   0.00    -0.05   0.00   0.04
    22   6    -0.05   0.05  -0.03    -0.00   0.02   0.00    -0.04   0.01  -0.01
    23   6    -0.04   0.02  -0.07    -0.00   0.01  -0.00    -0.02  -0.01  -0.03
    24   6     0.00   0.00   0.01     0.01  -0.02  -0.00     0.02  -0.04   0.00
[...]
 Vib (Bot)    5  0.486150D+01          0.686770          1.581347
 Vib (Bot)    6  0.369559D+01          0.567684          1.307141
 Vib (Bot)    7  0.364643D+01          0.561868          1.293748
 Vib (Bot)    8  0.307241D+01          0.487479          1.122462
 Vib (Bot)    9  0.296704D+01          0.472323          1.087565
 Vib (Bot)   10  0.271765D+01          0.434193          0.999767
 Vib (Bot)   11  0.257461D+01          0.410711          0.945698
 Vib (Bot)   12  0.254847D+01          0.406280          0.935494
 Vib (Bot)   13  0.237944D+01          0.376475          0.866865
 Vib (Bot)   14  0.219488D+01          0.341411          0.786129
 Vib (Bot)   15  0.205416D+01          0.312634          0.719866
 Vib (Bot)   16  0.184690D+01          0.266444          0.613511
 Vib (Bot)   17  0.178985D+01          0.252817          0.582132
 Vib (Bot)   18  0.167073D+01          0.222907          0.513262
 Vib (Bot)   19  0.153943D+01          0.187360          0.431413
 Vib (Bot)   20  0.142403D+01          0.153519          0.353491
 Vib (Bot)   21  0.113979D+01          0.056824          0.130841
 Vib (Bot)   22  0.103900D+01          0.016613          0.038254
 Vib (Bot)   23  0.102311D+01          0.009924          0.022850
 Vib (Bot)   24  0.940077D+00         -0.026836         -0.061793
 Vib (Bot)   25  0.856873D+00         -0.067083         -0.154465
 Vib (Bot)   26  0.791394D+00         -0.101607         -0.233959
 Vib (Bot)   27  0.757431D+00         -0.120657         -0.277823
 Vib (Bot)   28  0.688525D+00         -0.162080         -0.373203
 Vib (Bot)   29  0.647250D+00         -0.188928         -0.435023
 Vib (Bot)   30  0.615038D+00         -0.211098         -0.486071
 Vib (Bot)   31  0.596938D+00         -0.224070         -0.515941
 Vib (Bot)   32  0.579079D+00         -0.237262         -0.546316
 Vib (Bot)   33  0.551201D+00         -0.258690         -0.595656
 Vib (Bot)   34  0.545318D+00         -0.263350         -0.606386
 Vib (Bot)   35  0.505742D+00         -0.296071         -0.681729
 Vib (Bot)   36  0.466905D+00         -0.330772         -0.761630
 Vib (Bot)   37  0.423700D+00         -0.372941         -0.858728
 Vib (Bot)   38  0.410040D+00         -0.387173         -0.891500
 Vib (Bot)   39  0.367749D+00         -0.434448         -1.000354
 Vib (Bot)   40  0.363171D+00         -0.439888         -1.012881
 Vib (Bot)   41  0.358241D+00         -0.445825         -1.026550
 Vib (Bot)   42  0.355829D+00         -0.448759         -1.033305
 Vib (Bot)   43  0.348081D+00         -0.458320         -1.055321
 Vib (Bot)   44  0.343241D+00         -0.464401         -1.069322
 Vib (Bot)   45  0.323617D+00         -0.489969         -1.128194
 Vib (Bot)   46  0.320709D+00         -0.493889         -1.137221
 Vib (Bot)   47  0.298653D+00         -0.524834         -1.208474
 Vib (Bot)   48  0.296416D+00         -0.528098         -1.215990
 Vib (Bot)   49  0.288052D+00         -0.540529         -1.244615
 Vib (Bot)   50  0.268373D+00         -0.571261         -1.315377
 Vib (Bot)   51  0.253081D+00         -0.596740         -1.374045
 Vib (Bot)   52  0.245789D+00         -0.609437         -1.403281
 Vib (Bot)   53  0.244345D+00         -0.611996         -1.409173
 Vib (V=0)       0.772305D+15         14.887789         34.280401
 Vib (V=0)    1  0.165769D+02          1.219504          2.808011
 Vib (V=0)    2  0.122315D+02          1.087481          2.504018
 Vib (V=0)    3  0.734292D+01          0.865869          1.993737
 Vib (V=0)    4  0.601257D+01          0.779060          1.793852
 Vib (V=0)    5  0.538715D+01          0.731359          1.684016
 Vib (V=0)    6  0.422926D+01          0.626265          1.442028
 Vib (V=0)    7  0.418055D+01          0.621233          1.430442
 Vib (V=0)    8  0.361283D+01          0.557847          1.284491
 Vib (V=0)    9  0.350887D+01          0.545168          1.255295
 Vib (V=0)   10  0.326326D+01          0.513652          1.182727
 Vib (V=0)   11  0.312271D+01          0.494532          1.138702
 Vib (V=0)   12  0.309706D+01          0.490949          1.130453
 Vib (V=0)   13  0.293141D+01          0.467076          1.075482
 Vib (V=0)   14  0.275111D+01          0.439508          1.012006
 Vib (V=0)   15  0.261413D+01          0.417328          0.960933
 Vib (V=0)   16  0.241339D+01          0.382627          0.881032
 Vib (V=0)   17  0.235838D+01          0.372613          0.857974
 Vib (V=0)   18  0.224395D+01          0.351012          0.808236
 Vib (V=0)   19  0.211859D+01          0.326048          0.750753
 Vib (V=0)   20  0.200926D+01          0.303036          0.697766
 Vib (V=0)   21  0.174463D+01          0.241704          0.556545
 Vib (V=0)   22  0.165304D+01          0.218284          0.502619
 Vib (V=0)   23  0.163875D+01          0.214514          0.493936
 Vib (V=0)   24  0.156477D+01          0.194452          0.447742
 Vib (V=0)   25  0.149208D+01          0.173793          0.400174
 Vib (V=0)   26  0.143611D+01          0.157188          0.361939
 Vib (V=0)   27  0.140758D+01          0.148473          0.341872
 Vib (V=0)   28  0.135092D+01          0.130630          0.300787
 Vib (V=0)   29  0.131788D+01          0.119877          0.276026
 Vib (V=0)   30  0.129264D+01          0.111476          0.256684
 Vib (V=0)   31  0.127868D+01          0.106760          0.245825
 Vib (V=0)   32  0.126507D+01          0.102115          0.235128
 Vib (V=0)   33  0.124419D+01          0.094888          0.218487
 Vib (V=0)   34  0.123985D+01          0.093368          0.214987
 Vib (V=0)   35  0.121118D+01          0.083208          0.191594
 Vib (V=0)   36  0.118411D+01          0.073390          0.168987
 Vib (V=0)   37  0.115538D+01          0.062725          0.144429
 Vib (V=0)   38  0.114663D+01          0.059424          0.136829
 Vib (V=0)   39  0.112068D+01          0.049480          0.113933
 Vib (V=0)   40  0.111798D+01          0.048432          0.111519
 Vib (V=0)   41  0.111509D+01          0.047310          0.108936
 Vib (V=0)   42  0.111369D+01          0.046764          0.107678
 Vib (V=0)   43  0.110923D+01          0.045021          0.103665
 Vib (V=0)   44  0.110648D+01          0.043942          0.101181
 Vib (V=0)   45  0.109559D+01          0.039648          0.091293
 Vib (V=0)   46  0.109402D+01          0.039023          0.089855
 Vib (V=0)   47  0.108240D+01          0.034389          0.079184
 Vib (V=0)   48  0.108126D+01          0.033930          0.078127
 Vib (V=0)   49  0.107704D+01          0.032231          0.074216
 Vib (V=0)   50  0.106747D+01          0.028356          0.065293
 Vib (V=0)   51  0.106040D+01          0.025470          0.058648
 Vib (V=0)   52  0.105715D+01          0.024135          0.055573
 Vib (V=0)   53  0.105651D+01          0.023874          0.054972
 Electronic      0.100000D+01          0.000000          0.000000
 Translational   0.382393D+09          8.582510         19.761960
 Rotational      0.292361D+08          7.465920         17.190915
 ***** Axes restored to original set *****
 -------------------------------------------------------------------
 Center     Atomic                   Forces (Hartrees/Bohr)
 Number     Number              X              Y              Z
 -------------------------------------------------------------------
      1        6           0.000003716   -0.000000398   -0.000001003
      2        6          -0.000003326   -0.000000676   -0.000005865
      3        6          -0.000003063    0.000004132    0.000005768
      4        6           0.000006059    0.000003146   -0.000009372
      5        6          -0.000006921    0.000003611   -0.000002883
      6        6           0.000004687    0.000000733    0.000006323
      7        6          -0.000012292    0.000003065   -0.000007002
      8        8           0.000000212   -0.000000788    0.000003978
      9        8          -0.000000971    0.000001391    0.000000370
     10       16          -0.000006385   -0.000006414   -0.000014854
     11        7           0.000009629    0.000004758    0.000011348
     12        6          -0.000004568    0.000002744    0.000000418
     13        7           0.000008379    0.000002722   -0.000002155
     14        6          -0.000001320    0.000000505   -0.000002710
     15        7          -0.000016462   -0.000008217   -0.000004627
     16        6           0.000005467   -0.000001703   -0.000000375
     17        6           0.000005658    0.000003491    0.000006499
     18       15           0.000007908    0.000005253    0.000005946
     19        6           0.000001673    0.000002623    0.000000677
     20        6           0.000000568   -0.000000332   -0.000000517
     21        6          -0.000000802    0.000001172   -0.000000534
     22        6          -0.000000544   -0.000001764    0.000001074
     23        6           0.000001199   -0.000000271    0.000002982
     24        6           0.000010934   -0.000000968   -0.000010582
     25        6          -0.000006307    0.000004413    0.000002816
     26        6          -0.000003429    0.000003287   -0.000004934
     27        6           0.000004212   -0.000000194   -0.000003164
     28        6          -0.000003896    0.000007011    0.000004257
     29        6          -0.000001582    0.000000015   -0.000002578
     30        6          -0.000000252   -0.000002697    0.000001155
     31        6           0.000000837    0.000000881    0.000005844
     32        6          -0.000000654    0.000002739    0.000001299
     33        6          -0.000000521   -0.000003890   -0.000001951
     34        1          -0.000000920   -0.000000071   -0.000002200
     35        1          -0.000000104   -0.000000187   -0.000002076
     36        1           0.000001421   -0.000001616   -0.000002747
     37        1           0.000002213   -0.000001945   -0.000002337
     38        1           0.000008059   -0.000007773   -0.000004179
     39        1          -0.000003125   -0.000007840    0.000000769
     40        1          -0.000000219   -0.000000419   -0.000001704
     41        1           0.000000175   -0.000000684   -0.000000674
     42        1          -0.000000015   -0.000000481    0.000000146
     43        1           0.000000261    0.000000230   -0.000000251
     44        1          -0.000012878   -0.000003786    0.000012830
     45        1           0.000000121   -0.000004558    0.000000866
     46        1           0.000000573    0.000003745   -0.000000642
     47        1          -0.000000930    0.000002175   -0.000000184
     48        1           0.000000396   -0.000002578    0.000000192
     49        1          -0.000001445    0.000002056    0.000000584
     50        1          -0.000000063    0.000001757    0.000002141
     51        1           0.000000437    0.000000657    0.000002797
     52        1          -0.000000473   -0.000000587    0.000002465
     53        1          -0.000000063   -0.000001675    0.000001799
     54        1           0.000007190   -0.000001611   -0.000002808
     55        6           0.000000309   -0.000000694   -0.000001992
     56        6           0.000012271    0.000002734    0.000010860
     57        6          -0.000002905    0.000001303    0.000000290
     58        6           0.000003618    0.000004920   -0.000002905
     59        1          -0.000010249   -0.000003154   -0.000007162
     60        6          -0.000001125   -0.000002545    0.000003366
     61        1           0.000000557   -0.000001175    0.000000594
     62        6          -0.000001101   -0.000003966   -0.000002350
     63        1           0.000000257    0.000000050    0.000000893
     64        1          -0.000000497   -0.000001793   -0.000000579
     65        6           0.000000979    0.000001034    0.000002680
     66        1           0.000000370   -0.000000683    0.000001880
     67        1          -0.000000592   -0.000000118    0.000002160
     68        1          -0.000000343   -0.000000100    0.000001828
 -------------------------------------------------------------------
 Cartesian Forces:  Max     0.000016462 RMS     0.000004301
 FormGI is forming the generalized inverse of G from B-inverse, IUseBI=4.

 ----------------------------------------------------------------------

 Electric dipole moment (input orientation):
 (Debye = 10**-18 statcoulomb cm , SI units = C m)
                  (au)            (Debye)         (10**-30 SI)
   Tot        0.660278D+01      0.167826D+02      0.559807D+02
   x          0.493502D+01      0.125436D+02      0.418408D+02
   y         -0.236391D+01     -0.600845D+01     -0.200420D+02
   z          0.369516D+01      0.939217D+01      0.313289D+02

 Dipole polarizability, Alpha (input orientation).
 (esu units = cm**3 , SI units = C**2 m**2 J**-1)
 Alpha(0;0):
               (au)            (10**-24 esu)      (10**-40 SI)
   iso        0.495336D+03      0.734012D+02      0.816699D+02
   aniso      0.108844D+03      0.161290D+02      0.179460D+02
   xx         0.506709D+03      0.750865D+02      0.835450D+02
   yx         0.339381D+02      0.502911D+01      0.559564D+01
   yy         0.540473D+03      0.800898D+02      0.891119D+02
   zx         0.368643D+01      0.546273D+00      0.607811D+00
   zy        -0.101808D+02     -0.150864D+01     -0.167859D+01
   zz         0.438827D+03      0.650274D+02      0.723527D+02

 ----------------------------------------------------------------------

 Dipole orientation:
     6          3.13877562          6.47025084         -3.41128604
     6          3.85330174          8.27795906         -1.64339827
     6          2.14364323          9.04726016          0.20699918
     6         -0.27868830          8.00735031          0.29265100
     6         -1.00372618          6.21779430         -1.48235416
     6          0.70276080          5.44321884         -3.34946572
     6          0.01102234          3.56345360         -5.25617717
     8         -0.48956961          0.14031504         -9.27555249
     8         -5.12300992          1.10141943         -8.79692939
    16         -2.70667000          0.43333437         -7.64788236
     7         -2.20642709          2.58286189         -5.33989289
     6          4.19789863         -0.01739652         -3.27123503
     7          3.37404195         -1.13664748         -1.53289501
     6          3.94104027          0.86926921          4.21318225
     7          2.52300579         -2.64938752          0.28993877
     6         -1.26045487          0.61391264          2.54191207
     6          0.94518369         -3.78137741          5.01035108
    15          1.61345129         -1.22835397          2.85468205
     6          4.33046095          3.22535978          3.07044885
     6          6.23823259          4.80253096          3.94923697
     6          7.75557699          4.04184735          5.96217320
     6          7.37605869          1.69660843          7.09651146
     6          5.47832030          0.10198184          6.22032261
     6         -2.97817503         -0.09905386          0.67023352
     6         -5.30404885          1.11254328          0.49675108
     6         -5.92037456          3.02929778          2.19143182
     6         -4.20183476          3.75656986          4.05143300
     6         -1.86921052          2.55940499          4.22645708
     6         -0.21533113         -3.26834130          7.32871275
     6         -0.75391955         -5.23484441          8.98506193
     6         -0.15793610         -7.71338605          8.32308049
     6          0.98674241         -8.22658338          6.00948890
     6          1.55107995         -6.26493437          4.35024969
     1          4.47102695          5.83338384         -4.83589101
     1          5.74106298          9.07762027         -1.70178049
     1          2.70340615         10.45111776          1.59511603
     1         -1.59972096          8.58917187          1.74934860
     1          1.47369919          3.02676556         -6.61240122
     1          3.14214683          3.83809601          1.51239712
     1          6.53227230          6.62687037          3.06010448
     1          9.23908836          5.28099941          6.64956997
     1          8.55803527          1.10651705          8.66509227
     1          5.19183290         -1.72778351          7.10362985
     1         -2.48693183         -1.59500652         -0.64309655
     1         -6.62397611          0.56459041         -0.97275812
     1         -7.73835354          3.97027167          2.05573457
     1         -4.67451400          5.26298131          5.36071554
     1         -0.52708456          3.15200143          5.66154370
     1         -0.71008089         -1.34411635          7.84576674
     1         -1.64976454         -4.83344107         10.78534211
     1         -0.59102624         -9.24787433          9.61385133
     1          1.44803512        -10.15708215          5.49309320
     1          2.44219865         -6.63949391          2.54344615
     1         -2.87782491          5.39025048         -1.43060743
     6         -3.08052489         -2.34721625         -5.82223749
     6         -5.46125850         -2.99603022         -4.91436990
     6         -0.94625579         -3.75414543         -5.19688050
     6         -5.68638162         -5.06379115         -3.30720068
     1         -7.10544510         -1.89471711         -5.44987586
     6         -1.20807949         -5.80801405         -3.58764627
     1          0.89463904         -3.21555210         -5.91636994
     6         -3.56732897         -6.47299187         -2.59544113
     1         -7.53586368         -5.57254439         -2.57686415
     1          0.45543303         -6.88265764         -3.05519200
     6         -3.77922378         -8.62618178         -0.74640238
     1         -2.77873156        -10.30102306         -1.43389717
     1         -2.92444582         -8.09890221          1.06639999
     1         -5.74940600         -9.14004826         -0.39779275

 Electric dipole moment (dipole orientation):
 (Debye = 10**-18 statcoulomb cm , SI units = C m)
                  (au)            (Debye)         (10**-30 SI)
   Tot        0.660278D+01      0.167826D+02      0.559807D+02
   x          0.000000D+00      0.000000D+00      0.000000D+00
   y          0.000000D+00      0.000000D+00      0.000000D+00
   z          0.660278D+01      0.167826D+02      0.559807D+02

 Dipole polarizability, Alpha (dipole orientation).
 (esu units = cm**3 , SI units = C**2 m**2 J**-1)
 Alpha(0;0):
               (au)            (10**-24 esu)      (10**-40 SI)
   iso        0.495336D+03      0.734012D+02      0.816699D+02
   aniso      0.108844D+03      0.161290D+02      0.179460D+02
   xx         0.476330D+03      0.705849D+02      0.785363D+02
   yx         0.512052D+02      0.758783D+01      0.844260D+01
   yy         0.530901D+03      0.786714D+02      0.875337D+02
   zx         0.184366D+02      0.273202D+01      0.303979D+01
   zy        -0.608285D+01     -0.901386D+00     -0.100293D+01
   zz         0.478777D+03      0.709474D+02      0.789397D+02

 ----------------------------------------------------------------------

 This type of calculation cannot be archived.


      HUMANKIND PERIODICALLY GOES THROUGH A SPEEDUP OF ITS AFFAIRS, 
      THEREBY EXPERIENCING THE RACE BETWEEN THE RENEWABLE VITALITY
      OF THE LIVING, AND THE BECKONING VITIATION OF DECADENCE.
      IN THIS PERIODIC RACE, ANY PAUSE BECOMES A LUXURY.
      ONLY THEN CAN ONE REFLECT THAT ALL IS PERMITTED;
      ALL IS POSSIBLE.

                              -- THE APOCRYPHA OF MUAD'DIB
                                 CHILDREN OF DUNE, BY FRANK HERBERT
 Job cpu time:       0 days  0 hours  0 minutes  2.2 seconds.
 Elapsed time:       0 days  0 hours  0 minutes  0.6 seconds.
 File lengths (MBytes):  RWF=     10 Int=      0 D2E=      0 Chk=     11 Scr=      1
 Normal termination of Gaussian 16 at Sat Apr  4 18:50:32 2020.
