 Entering Gaussian System, Link 0=g16
 Initial command:
 /apps/cent7/gaussian/g16-A.03/g16-haswell/g16/l1.exe "/scratch/brown/finej/0051_imine_mechanism/ts_631gd/acyclic_complete/new_logs_2/Gau-245142.inp" -scrdir="/scratch/brown/finej/0051_imine_mechanism/ts_631gd/acyclic_complete/new_logs_2/"
 Entering Link 1 = /apps/cent7/gaussian/g16-A.03/g16-haswell/g16/l1.exe PID=    245143.
  
 Copyright (c) 1988,1990,1992,1993,1995,1998,2003,2009,2016,
            Gaussian, Inc.  All Rights Reserved.
  
 This is part of the Gaussian(R) 16 program.  It is based on
 the Gaussian(R) 09 system (copyright 2009, Gaussian, Inc.),
 the Gaussian(R) 03 system (copyright 2003, Gaussian, Inc.),
 the Gaussian(R) 98 system (copyright 1998, Gaussian, Inc.),
 the Gaussian(R) 94 system (copyright 1995, Gaussian, Inc.),
 the Gaussian 92(TM) system (copyright 1992, Gaussian, Inc.),
 the Gaussian 90(TM) system (copyright 1990, Gaussian, Inc.),
 the Gaussian 88(TM) system (copyright 1988, Gaussian, Inc.),
 the Gaussian 86(TM) system (copyright 1986, Carnegie Mellon
 University), and the Gaussian 82(TM) system (copyright 1983,
 Carnegie Mellon University). Gaussian is a federally registered
 trademark of Gaussian, Inc.
  
 This software contains proprietary and confidential information,
 including trade secrets, belonging to Gaussian, Inc.
  
 This software is provided under written license and may be
 used, copied, transmitted, or stored only in accord with that
 written license.
  
 The following legend is applicable only to US Government
 contracts under FAR:
  
                    RESTRICTED RIGHTS LEGEND
  
 Use, reproduction and disclosure by the US Government is
 subject to restrictions as set forth in subparagraphs (a)
 and (c) of the Commercial Computer Software - Restricted
 Rights clause in FAR 52.227-19.
  
 Gaussian, Inc.
 340 Quinnipiac St., Bldg. 40, Wallingford CT 06492
  
  
 ---------------------------------------------------------------
 Warning -- This program may not be used in any manner that
 competes with the business of Gaussian, Inc. or will provide
 assistance to any competitor of Gaussian, Inc.  The licensee
 of this program is prohibited from giving any competitor of
 Gaussian, Inc. access to this program.  By using this program,
 the user acknowledges that Gaussian, Inc. is engaged in the
 business of creating and licensing software in the field of
 computational chemistry and represents and warrants to the
 licensee that it is not a competitor of Gaussian, Inc. and that
 it will not use this program in any manner prohibited above.
 ---------------------------------------------------------------
  

 Cite this work as:
 Gaussian 16, Revision A.03,
 M. J. Frisch, G. W. Trucks, H. B. Schlegel, G. E. Scuseria, 
 M. A. Robb, J. R. Cheeseman, G. Scalmani, V. Barone, 
 G. A. Petersson, H. Nakatsuji, X. Li, M. Caricato, A. V. Marenich, 
 J. Bloino, B. G. Janesko, R. Gomperts, B. Mennucci, H. P. Hratchian, 
 J. V. Ortiz, A. F. Izmaylov, J. L. Sonnenberg, D. Williams-Young, 
 F. Ding, F. Lipparini, F. Egidi, J. Goings, B. Peng, A. Petrone, 
 T. Henderson, D. Ranasinghe, V. G. Zakrzewski, J. Gao, N. Rega, 
 G. Zheng, W. Liang, M. Hada, M. Ehara, K. Toyota, R. Fukuda, 
 J. Hasegawa, M. Ishida, T. Nakajima, Y. Honda, O. Kitao, H. Nakai, 
 T. Vreven, K. Throssell, J. A. Montgomery, Jr., J. E. Peralta, 
 F. Ogliaro, M. J. Bearpark, J. J. Heyd, E. N. Brothers, K. N. Kudin, 
 V. N. Staroverov, T. A. Keith, R. Kobayashi, J. Normand, 
 K. Raghavachari, A. P. Rendell, J. C. Burant, S. S. Iyengar, 
 J. Tomasi, M. Cossi, J. M. Millam, M. Klene, C. Adamo, R. Cammi, 
 J. W. Ochterski, R. L. Martin, K. Morokuma, O. Farkas, 
 J. B. Foresman, and D. J. Fox, Gaussian, Inc., Wallingford CT, 2016.
 
 ******************************************
 Gaussian 16:  ES64L-G16RevA.03 25-Dec-2016
                 4-Apr-2020 
 ******************************************
 %nprocshared=4
 Will use up to    4 processors via shared memory.
 %mem=1GB
 %oldchk=chk/acyclic_2_to_3.chk
 Copying data from "chk/acyclic_2_to_3.chk" to current chk file "/scratch/brown/finej/0051_imine_mechanism/ts_631gd/acyclic_complete/new_logs_2/Gau-245143.chk"
 IOpt=  2 FromEx=T IUOpen= 4 IOptOp= 5 NList=   0 IFRang= 0 IUIn= 4 IUOut= 2.
 ----------------------------------------------------------------------
 # freq=readfc wb97xd/6-31g(d) scrf=solvent=dichloromethane geom=check 
 temperature=263.15
 ----------------------------------------------------------------------
 1/29=2,38=1,112=263150,172=1/1;
 2/12=2,40=1/2;
 7/8=1,25=11/16;
 99/5=2/99;
 -------------------------
 Attack by carboxylic acid
 -------------------------
 Structure from the checkpoint file:  "/scratch/brown/finej/0051_imine_mechanism/ts_631gd/acyclic_complete/new_logs_2/Gau-245143.chk"
 Charge =  0 Multiplicity = 1
 Redundant internal coordinates found in file.  (old form).
 C,0,-2.8447530777,-1.546620129,-2.6694265455
 C,0,-3.9402254634,-1.3231894816,-3.4998116332
 C,0,-4.7867774938,-0.2459321757,-3.2560807029
 C,0,-4.5278352269,0.6108004485,-2.1873872942
 C,0,-3.4285469008,0.3940043583,-1.365537828
 C,0,-2.5856698301,-0.6922086624,-1.5991358463
 C,0,-1.4090260692,-1.0013055145,-0.6837551448
 N,0,-1.5878585684,-0.732670155,0.7376294845
 C,0,-0.6221704949,4.5808621775,0.9948913237
 C,0,-0.1227748388,5.8788668179,1.0259961132
 C,0,0.6750512397,6.3438290039,-0.018905116
 C,0,0.9628526572,5.5109243984,-1.0991503225
 C,0,0.4562920627,4.2153365467,-1.1329224841
 O,0,-1.4124545464,1.905403063,0.9519587064
 C,0,-0.3324324535,3.7416279115,-0.082629293
 C,0,-0.8172785581,2.3143651715,-0.0700790505
 O,0,-0.5660477613,1.6326905964,-1.1194173077
 C,0,-0.1554670853,-0.2885096121,-1.0688959441
 N,0,0.9791687391,-0.4973872878,-1.3124266804
 C,0,3.1546406322,0.6612217878,0.9268180939
 N,0,2.2174100145,-0.1271627676,-1.6388065409
 C,0,4.8992998171,-0.4199225901,-1.189440023
 C,0,2.9818044082,-2.15673456,0.2566492927
 P,0,3.266532932,-0.5144118076,-0.4449767724
 C,0,3.5775450039,0.33664218,2.2204655633
 C,0,3.5012297295,1.2916191951,3.2286746377
 C,0,2.998131523,2.5618128367,2.9506476223
 C,0,2.5675022918,2.8832053941,1.6657003191
 C,0,2.6452287303,1.9338916345,0.6521579084
 C,0,6.0047701487,-0.0254421453,-0.4299308668
 C,0,7.2690427439,-0.0122460832,-1.0092544934
 C,0,7.4295440852,-0.3876890171,-2.3411506283
 C,0,6.3273255306,-0.7774942686,-3.0993843418
 C,0,5.0602165404,-0.797886486,-2.5269515025
 C,0,1.8230939989,-2.3683495863,1.0183114849
 C,0,1.5084981882,-3.6479797115,1.4597521447
 C,0,2.3568032611,-4.7136725439,1.1630862024
 C,0,3.5160030512,-4.5038385681,0.4201061736
 C,0,3.8270807458,-3.228679052,-0.0430769095
 H,0,-2.1956934516,-2.4003422903,-2.8493981389
 H,0,-4.1367577361,-1.9977265425,-4.3276096311
 H,0,-5.6492792597,-0.0755472038,-3.8936034801
 H,0,-5.1895250268,1.4482282506,-1.9879073667
 H,0,-1.1584084851,-2.0627973075,-0.7839247549
 H,0,-1.6326895051,0.2979894971,0.9735859436
 H,0,-1.2281898764,4.1974174835,1.8086185026
 H,0,-0.3493143473,6.5268274786,1.8675113114
 H,0,1.0716791755,7.3545402863,0.0085801235
 H,0,1.5835958853,5.8710835927,-1.9140982758
 H,0,0.6767576439,3.5531351825,-1.963555332
 H,0,3.9550418641,-0.6573075896,2.4434236739
 H,0,3.8260960612,1.0416254442,4.2334635504
 H,0,2.9342458939,3.3013149512,3.7428883048
 H,0,2.162198461,3.8669838639,1.4503426683
 H,0,2.2927696378,2.1694757786,-0.3474953643
 H,0,5.8822748639,0.2788606735,0.6050608446
 H,0,8.1272068017,0.2966646864,-0.4215512754
 H,0,8.4172966127,-0.3732741072,-2.7911634714
 H,0,6.4533888304,-1.0649168545,-4.1380842457
 H,0,4.1959912134,-1.0938656925,-3.1124472667
 H,0,1.1616233189,-1.5427892489,1.2676346438
 H,0,0.5963219222,-3.8079875684,2.0249719241
 H,0,2.1124882679,-5.711940092,1.5128101924
 H,0,4.1775529623,-5.3340622282,0.1946638421
 H,0,4.7245074651,-3.0719455488,-0.6338569343
 H,0,-3.240258977,1.0531650582,-0.5247465289
 S,0,-2.4890334895,-1.7463885507,1.6636105726
 O,0,-2.0870036819,-3.1112059736,1.3284484511
 O,0,-2.3530788017,-1.2523684562,3.0283120023
 C,0,-4.1839612429,-1.5494506739,1.169288209
 C,0,-4.7221778566,-2.404366731,0.2120984934
 C,0,-4.9042684602,-0.4568304386,1.6427257452
 C,0,-5.9915579125,-2.1464196568,-0.28612837
 H,0,-4.1467938435,-3.2507271135,-0.1459418582
 C,0,-6.1743458692,-0.2146072982,1.1344640064
 H,0,-4.4741446325,0.1996811999,2.3920809795
 C,0,-6.7277621676,-1.0422112944,0.153222162
 H,0,-6.4110073727,-2.8042848213,-1.0420218781
 H,0,-6.7397655106,0.6387645836,1.4980938347
 C,0,-8.0706711344,-0.7327443986,-0.4537095456
 H,0,-8.6636688521,-0.0792516743,0.1919521053
 H,0,-7.9390577818,-0.2227454243,-1.4157016783
 H,0,-8.6434473409,-1.6455915906,-0.6428574958
 Recover connectivity data from disk.
                           ----------------------------
                           !    Current Parameters    !
                           ! (Angstroms and Degrees)  !
 --------------------------                            --------------------------
 ! Name  Definition              Value          Derivative Info.                !
 --------------------------------------------------------------------------------
 ! R1    R(1,2)                  1.3927         estimate D2E/DX2                !
 ! R2    R(1,6)                  1.3938         estimate D2E/DX2                !
 ! R3    R(1,40)                 1.0874         estimate D2E/DX2                !
 ! R4    R(2,3)                  1.3916         estimate D2E/DX2                !
 ! R5    R(2,41)                 1.0858         estimate D2E/DX2                !
 ! R6    R(3,4)                  1.394          estimate D2E/DX2                !
 ! R7    R(3,42)                 1.086          estimate D2E/DX2                !
 ! R8    R(4,5)                  1.3896         estimate D2E/DX2                !
 ! R9    R(4,43)                 1.0858         estimate D2E/DX2                !
 ! R10   R(5,6)                  1.3946         estimate D2E/DX2                !
 ! R11   R(5,66)                 1.0848         estimate D2E/DX2                !
 ! R12   R(6,7)                  1.5225         estimate D2E/DX2                !
 ! R13   R(7,8)                  1.4576         estimate D2E/DX2                !
 ! R14   R(7,18)                 1.4926         estimate D2E/DX2                !
 ! R15   R(7,44)                 1.0953         estimate D2E/DX2                !
 ! R16   R(8,45)                 1.0583         Frozen                          !
 ! R17   R(8,67)                 1.6423         estimate D2E/DX2                !
 ! R18   R(9,10)                 1.3911         estimate D2E/DX2                !
 ! R19   R(9,15)                 1.3962         estimate D2E/DX2                !
 ! R20   R(9,46)                 1.0846         estimate D2E/DX2                !
 ! R21   R(10,11)                1.3945         estimate D2E/DX2                !
 ! R22   R(10,47)                1.086          estimate D2E/DX2                !
 ! R23   R(11,12)                1.3941         estimate D2E/DX2                !
 ! R24   R(11,48)                1.0861         estimate D2E/DX2                !
 ! R25   R(12,13)                1.3915         estimate D2E/DX2                !
 ! R26   R(12,49)                1.0859         estimate D2E/DX2                !
 ! R27   R(13,15)                1.3963         estimate D2E/DX2                !
 ! R28   R(13,50)                1.0849         estimate D2E/DX2                !
 ! R29   R(14,16)                1.2514         estimate D2E/DX2                !
 ! R30   R(14,45)                1.6226         Frozen                          !
 ! R31   R(15,16)                1.5074         estimate D2E/DX2                !
 ! R32   R(16,17)                1.2763         estimate D2E/DX2                !
 ! R33   R(17,18)                1.9652         Frozen                          !
 ! R34   R(18,19)                1.1791         estimate D2E/DX2                !
 ! R35   R(19,21)                1.333          estimate D2E/DX2                !
 ! R36   R(20,24)                1.8101         estimate D2E/DX2                !
 ! R37   R(20,25)                1.3992         estimate D2E/DX2                !
 ! R38   R(20,29)                1.3981         estimate D2E/DX2                !
 ! R39   R(21,24)                1.6358         estimate D2E/DX2                !
 ! R40   R(22,24)                1.797          estimate D2E/DX2                !
 ! R41   R(22,30)                1.398          estimate D2E/DX2                !
 ! R42   R(22,34)                1.3992         estimate D2E/DX2                !
 ! R43   R(23,24)                1.8085         estimate D2E/DX2                !
 ! R44   R(23,35)                1.4027         estimate D2E/DX2                !
 ! R45   R(23,39)                1.3976         estimate D2E/DX2                !
 ! R46   R(25,26)                1.3908         estimate D2E/DX2                !
 ! R47   R(25,51)                1.0863         estimate D2E/DX2                !
 ! R48   R(26,27)                1.3942         estimate D2E/DX2                !
 ! R49   R(26,52)                1.0852         estimate D2E/DX2                !
 ! R50   R(27,28)                1.3928         estimate D2E/DX2                !
 ! R51   R(27,53)                1.0856         estimate D2E/DX2                !
 ! R52   R(28,29)                1.3909         estimate D2E/DX2                !
 ! R53   R(28,54)                1.0856         estimate D2E/DX2                !
 ! R54   R(29,55)                1.0858         estimate D2E/DX2                !
 ! R55   R(30,31)                1.3907         estimate D2E/DX2                !
 ! R56   R(30,56)                1.0857         estimate D2E/DX2                !
 ! R57   R(31,32)                1.3931         estimate D2E/DX2                !
 ! R58   R(31,57)                1.085          estimate D2E/DX2                !
 ! R59   R(32,33)                1.3935         estimate D2E/DX2                !
 ! R60   R(32,58)                1.0855         estimate D2E/DX2                !
 ! R61   R(33,34)                1.3906         estimate D2E/DX2                !
 ! R62   R(33,59)                1.0851         estimate D2E/DX2                !
 ! R63   R(34,60)                1.085          estimate D2E/DX2                !
 ! R64   R(35,36)                1.3897         estimate D2E/DX2                !
 ! R65   R(35,61)                1.0869         estimate D2E/DX2                !
 ! R66   R(36,37)                1.394          estimate D2E/DX2                !
 ! R67   R(36,62)                1.085          estimate D2E/DX2                !
 ! R68   R(37,38)                1.3928         estimate D2E/DX2                !
 ! R69   R(37,63)                1.0856         estimate D2E/DX2                !
 ! R70   R(38,39)                1.3919         estimate D2E/DX2                !
 ! R71   R(38,64)                1.0852         estimate D2E/DX2                !
 ! R72   R(39,65)                1.0858         estimate D2E/DX2                !
 ! R73   R(67,68)                1.4617         estimate D2E/DX2                !
 ! R74   R(67,69)                1.4577         estimate D2E/DX2                !
 ! R75   R(67,70)                1.7765         estimate D2E/DX2                !
 ! R76   R(70,71)                1.3917         estimate D2E/DX2                !
 ! R77   R(70,72)                1.3917         estimate D2E/DX2                !
 ! R78   R(71,73)                1.3878         estimate D2E/DX2                !
 ! R79   R(71,74)                1.0842         estimate D2E/DX2                !
 ! R80   R(72,75)                1.3893         estimate D2E/DX2                !
 ! R81   R(72,76)                1.0851         estimate D2E/DX2                !
 ! R82   R(73,77)                1.398          estimate D2E/DX2                !
 ! R83   R(73,78)                1.0863         estimate D2E/DX2                !
 ! R84   R(75,77)                1.3979         estimate D2E/DX2                !
 ! R85   R(75,79)                1.0864         estimate D2E/DX2                !
 ! R86   R(77,80)                1.5058         estimate D2E/DX2                !
 ! R87   R(80,81)                1.0934         estimate D2E/DX2                !
 ! R88   R(80,82)                1.0967         estimate D2E/DX2                !
 ! R89   R(80,83)                1.0941         estimate D2E/DX2                !
 ! A1    A(2,1,6)              120.3799         estimate D2E/DX2                !
 ! A2    A(2,1,40)             119.7867         estimate D2E/DX2                !
 ! A3    A(6,1,40)             119.8283         estimate D2E/DX2                !
 ! A4    A(1,2,3)              119.8861         estimate D2E/DX2                !
 ! A5    A(1,2,41)             119.8218         estimate D2E/DX2                !
 ! A6    A(3,2,41)             120.2879         estimate D2E/DX2                !
 ! A7    A(2,3,4)              119.8047         estimate D2E/DX2                !
 ! A8    A(2,3,42)             120.1177         estimate D2E/DX2                !
 ! A9    A(4,3,42)             120.077          estimate D2E/DX2                !
 ! A10   A(3,4,5)              120.2983         estimate D2E/DX2                !
 ! A11   A(3,4,43)             120.1105         estimate D2E/DX2                !
 ! A12   A(5,4,43)             119.5896         estimate D2E/DX2                !
 ! A13   A(4,5,6)              120.0389         estimate D2E/DX2                !
 ! A14   A(4,5,66)             120.0597         estimate D2E/DX2                !
 ! A15   A(6,5,66)             119.8795         estimate D2E/DX2                !
 ! A16   A(1,6,5)              119.5867         estimate D2E/DX2                !
 ! A17   A(1,6,7)              118.744          estimate D2E/DX2                !
 ! A18   A(5,6,7)              121.636          estimate D2E/DX2                !
 ! A19   A(6,7,8)              117.0057         estimate D2E/DX2                !
 ! A20   A(6,7,18)             113.3897         estimate D2E/DX2                !
 ! A21   A(6,7,44)             108.5792         estimate D2E/DX2                !
 ! A22   A(8,7,18)             105.4656         estimate D2E/DX2                !
 ! A23   A(8,7,44)             107.2105         estimate D2E/DX2                !
 ! A24   A(18,7,44)            104.3034         estimate D2E/DX2                !
 ! A25   A(7,8,45)             113.711          estimate D2E/DX2                !
 ! A26   A(7,8,67)             120.225          estimate D2E/DX2                !
 ! A27   A(45,8,67)            116.8841         estimate D2E/DX2                !
 ! A28   A(10,9,15)            120.2399         estimate D2E/DX2                !
 ! A29   A(10,9,46)            120.9084         estimate D2E/DX2                !
 ! A30   A(15,9,46)            118.8454         estimate D2E/DX2                !
 ! A31   A(9,10,11)            119.9839         estimate D2E/DX2                !
 ! A32   A(9,10,47)            119.9453         estimate D2E/DX2                !
 ! A33   A(11,10,47)           120.0695         estimate D2E/DX2                !
 ! A34   A(10,11,12)           119.969          estimate D2E/DX2                !
 ! A35   A(10,11,48)           120.0175         estimate D2E/DX2                !
 ! A36   A(12,11,48)           120.0135         estimate D2E/DX2                !
 ! A37   A(11,12,13)           119.9949         estimate D2E/DX2                !
 ! A38   A(11,12,49)           120.0916         estimate D2E/DX2                !
 ! A39   A(13,12,49)           119.9134         estimate D2E/DX2                !
 ! A40   A(12,13,15)           120.2158         estimate D2E/DX2                !
 ! A41   A(12,13,50)           120.857          estimate D2E/DX2                !
 ! A42   A(15,13,50)           118.9215         estimate D2E/DX2                !
 ! A43   A(16,14,45)           113.5273         estimate D2E/DX2                !
 ! A44   A(9,15,13)            119.5921         estimate D2E/DX2                !
 ! A45   A(9,15,16)            119.733          estimate D2E/DX2                !
 ! A46   A(13,15,16)           120.6088         estimate D2E/DX2                !
 ! A47   A(14,16,15)           117.982          estimate D2E/DX2                !
 ! A48   A(14,16,17)           126.1962         estimate D2E/DX2                !
 ! A49   A(15,16,17)           115.8202         estimate D2E/DX2                !
 ! A50   A(7,18,19)            140.9743         estimate D2E/DX2                !
 ! A51   A(18,19,21)           153.5403         estimate D2E/DX2                !
 ! A52   A(24,20,25)           122.0962         estimate D2E/DX2                !
 ! A53   A(24,20,29)           117.7015         estimate D2E/DX2                !
 ! A54   A(25,20,29)           120.1944         estimate D2E/DX2                !
 ! A55   A(19,21,24)           110.5683         estimate D2E/DX2                !
 ! A56   A(24,22,30)           120.5467         estimate D2E/DX2                !
 ! A57   A(24,22,34)           119.0994         estimate D2E/DX2                !
 ! A58   A(30,22,34)           120.3051         estimate D2E/DX2                !
 ! A59   A(24,23,35)           118.5371         estimate D2E/DX2                !
 ! A60   A(24,23,39)           121.2039         estimate D2E/DX2                !
 ! A61   A(35,23,39)           120.0222         estimate D2E/DX2                !
 ! A62   A(20,24,21)           111.0813         estimate D2E/DX2                !
 ! A63   A(20,24,22)           109.6326         estimate D2E/DX2                !
 ! A64   A(20,24,23)           106.6223         estimate D2E/DX2                !
 ! A65   A(21,24,22)           105.542          estimate D2E/DX2                !
 ! A66   A(21,24,23)           113.4002         estimate D2E/DX2                !
 ! A67   A(22,24,23)           110.5814         estimate D2E/DX2                !
 ! A68   A(20,25,26)           119.6281         estimate D2E/DX2                !
 ! A69   A(20,25,51)           120.4663         estimate D2E/DX2                !
 ! A70   A(26,25,51)           119.9029         estimate D2E/DX2                !
 ! A71   A(25,26,27)           120.0536         estimate D2E/DX2                !
 ! A72   A(25,26,52)           119.7755         estimate D2E/DX2                !
 ! A73   A(27,26,52)           120.1686         estimate D2E/DX2                !
 ! A74   A(26,27,28)           120.3832         estimate D2E/DX2                !
 ! A75   A(26,27,53)           119.7553         estimate D2E/DX2                !
 ! A76   A(28,27,53)           119.8595         estimate D2E/DX2                !
 ! A77   A(27,28,29)           119.836          estimate D2E/DX2                !
 ! A78   A(27,28,54)           120.5026         estimate D2E/DX2                !
 ! A79   A(29,28,54)           119.6588         estimate D2E/DX2                !
 ! A80   A(20,29,28)           119.9016         estimate D2E/DX2                !
 ! A81   A(20,29,55)           119.7776         estimate D2E/DX2                !
 ! A82   A(28,29,55)           120.3084         estimate D2E/DX2                !
 ! A83   A(22,30,31)           119.6826         estimate D2E/DX2                !
 ! A84   A(22,30,56)           120.5139         estimate D2E/DX2                !
 ! A85   A(31,30,56)           119.8012         estimate D2E/DX2                !
 ! A86   A(30,31,32)           120.0291         estimate D2E/DX2                !
 ! A87   A(30,31,57)           119.7402         estimate D2E/DX2                !
 ! A88   A(32,31,57)           120.2298         estimate D2E/DX2                !
 ! A89   A(31,32,33)           120.2979         estimate D2E/DX2                !
 ! A90   A(31,32,58)           119.8418         estimate D2E/DX2                !
 ! A91   A(33,32,58)           119.8601         estimate D2E/DX2                !
 ! A92   A(32,33,34)           120.0578         estimate D2E/DX2                !
 ! A93   A(32,33,59)           120.2038         estimate D2E/DX2                !
 ! A94   A(34,33,59)           119.7383         estimate D2E/DX2                !
 ! A95   A(22,34,33)           119.6269         estimate D2E/DX2                !
 ! A96   A(22,34,60)           119.8621         estimate D2E/DX2                !
 ! A97   A(33,34,60)           120.5075         estimate D2E/DX2                !
 ! A98   A(23,35,36)           119.8942         estimate D2E/DX2                !
 ! A99   A(23,35,61)           120.8453         estimate D2E/DX2                !
 ! A100  A(36,35,61)           119.2602         estimate D2E/DX2                !
 ! A101  A(35,36,37)           119.9047         estimate D2E/DX2                !
 ! A102  A(35,36,62)           119.4459         estimate D2E/DX2                !
 ! A103  A(37,36,62)           120.6464         estimate D2E/DX2                !
 ! A104  A(36,37,38)           120.3199         estimate D2E/DX2                !
 ! A105  A(36,37,63)           119.8321         estimate D2E/DX2                !
 ! A106  A(38,37,63)           119.848          estimate D2E/DX2                !
 ! A107  A(37,38,39)           120.1033         estimate D2E/DX2                !
 ! A108  A(37,38,64)           120.1935         estimate D2E/DX2                !
 ! A109  A(39,38,64)           119.7022         estimate D2E/DX2                !
 ! A110  A(23,39,38)           119.7436         estimate D2E/DX2                !
 ! A111  A(23,39,65)           120.387          estimate D2E/DX2                !
 ! A112  A(38,39,65)           119.8694         estimate D2E/DX2                !
 ! A113  A(8,45,14)            162.9568         estimate D2E/DX2                !
 ! A114  A(8,67,68)            107.225          estimate D2E/DX2                !
 ! A115  A(8,67,69)            105.5148         estimate D2E/DX2                !
 ! A116  A(8,67,70)            107.3504         estimate D2E/DX2                !
 ! A117  A(68,67,69)           120.3602         estimate D2E/DX2                !
 ! A118  A(68,67,70)           107.5845         estimate D2E/DX2                !
 ! A119  A(69,67,70)           108.1747         estimate D2E/DX2                !
 ! A120  A(67,70,71)           119.4897         estimate D2E/DX2                !
 ! A121  A(67,70,72)           119.0904         estimate D2E/DX2                !
 ! A122  A(71,70,72)           121.0714         estimate D2E/DX2                !
 ! A123  A(70,71,73)           119.1087         estimate D2E/DX2                !
 ! A124  A(70,71,74)           120.0938         estimate D2E/DX2                !
 ! A125  A(73,71,74)           120.7917         estimate D2E/DX2                !
 ! A126  A(70,72,75)           119.0515         estimate D2E/DX2                !
 ! A127  A(70,72,76)           120.3148         estimate D2E/DX2                !
 ! A128  A(75,72,76)           120.6317         estimate D2E/DX2                !
 ! A129  A(71,73,77)           121.0415         estimate D2E/DX2                !
 ! A130  A(71,73,78)           119.3671         estimate D2E/DX2                !
 ! A131  A(77,73,78)           119.5827         estimate D2E/DX2                !
 ! A132  A(72,75,77)           121.0319         estimate D2E/DX2                !
 ! A133  A(72,75,79)           119.3615         estimate D2E/DX2                !
 ! A134  A(77,75,79)           119.6026         estimate D2E/DX2                !
 ! A135  A(73,77,75)           118.6696         estimate D2E/DX2                !
 ! A136  A(73,77,80)           120.3515         estimate D2E/DX2                !
 ! A137  A(75,77,80)           120.9519         estimate D2E/DX2                !
 ! A138  A(77,80,81)           111.6217         estimate D2E/DX2                !
 ! A139  A(77,80,82)           110.0035         estimate D2E/DX2                !
 ! A140  A(77,80,83)           111.412          estimate D2E/DX2                !
 ! A141  A(81,80,82)           107.7646         estimate D2E/DX2                !
 ! A142  A(81,80,83)           108.4697         estimate D2E/DX2                !
 ! A143  A(82,80,83)           107.4066         estimate D2E/DX2                !
 ! D1    D(6,1,2,3)             -0.3971         estimate D2E/DX2                !
 ! D2    D(6,1,2,41)          -179.6561         estimate D2E/DX2                !
 ! D3    D(40,1,2,3)           178.7794         estimate D2E/DX2                !
 ! D4    D(40,1,2,41)           -0.4796         estimate D2E/DX2                !
 ! D5    D(2,1,6,5)             -0.2293         estimate D2E/DX2                !
 ! D6    D(2,1,6,7)            177.7057         estimate D2E/DX2                !
 ! D7    D(40,1,6,5)          -179.4055         estimate D2E/DX2                !
 ! D8    D(40,1,6,7)            -1.4704         estimate D2E/DX2                !
 ! D9    D(1,2,3,4)              0.4991         estimate D2E/DX2                !
 ! D10   D(1,2,3,42)          -179.2202         estimate D2E/DX2                !
 ! D11   D(41,2,3,4)           179.7545         estimate D2E/DX2                !
 ! D12   D(41,2,3,42)            0.0353         estimate D2E/DX2                !
 ! D13   D(2,3,4,5)              0.0251         estimate D2E/DX2                !
 ! D14   D(2,3,4,43)          -179.5125         estimate D2E/DX2                !
 ! D15   D(42,3,4,5)           179.7445         estimate D2E/DX2                !
 ! D16   D(42,3,4,43)            0.2068         estimate D2E/DX2                !
 ! D17   D(3,4,5,6)             -0.6542         estimate D2E/DX2                !
 ! D18   D(3,4,5,66)          -178.951          estimate D2E/DX2                !
 ! D19   D(43,4,5,6)           178.8859         estimate D2E/DX2                !
 ! D20   D(43,4,5,66)            0.5891         estimate D2E/DX2                !
 ! D21   D(4,5,6,1)              0.7535         estimate D2E/DX2                !
 ! D22   D(4,5,6,7)           -177.12           estimate D2E/DX2                !
 ! D23   D(66,5,6,1)           179.0534         estimate D2E/DX2                !
 ! D24   D(66,5,6,7)             1.1799         estimate D2E/DX2                !
 ! D25   D(1,6,7,8)           -142.6086         estimate D2E/DX2                !
 ! D26   D(1,6,7,18)            94.2624         estimate D2E/DX2                !
 ! D27   D(1,6,7,44)           -21.1646         estimate D2E/DX2                !
 ! D28   D(5,6,7,8)             35.2823         estimate D2E/DX2                !
 ! D29   D(5,6,7,18)           -87.8468         estimate D2E/DX2                !
 ! D30   D(5,6,7,44)           156.7262         estimate D2E/DX2                !
 ! D31   D(6,7,8,45)           -69.9999         estimate D2E/DX2                !
 ! D32   D(6,7,8,67)            75.8383         estimate D2E/DX2                !
 ! D33   D(18,7,8,45)           57.1078         estimate D2E/DX2                !
 ! D34   D(18,7,8,67)         -157.054          estimate D2E/DX2                !
 ! D35   D(44,7,8,45)          167.8434         estimate D2E/DX2                !
 ! D36   D(44,7,8,67)          -46.3184         estimate D2E/DX2                !
 ! D37   D(6,7,18,19)         -126.909          estimate D2E/DX2                !
 ! D38   D(8,7,18,19)          103.8199         estimate D2E/DX2                !
 ! D39   D(44,7,18,19)          -8.9705         estimate D2E/DX2                !
 ! D40   D(7,8,45,14)          -30.3684         estimate D2E/DX2                !
 ! D41   D(67,8,45,14)        -177.413          estimate D2E/DX2                !
 ! D42   D(7,8,67,68)           45.4966         estimate D2E/DX2                !
 ! D43   D(7,8,67,69)          174.9348         estimate D2E/DX2                !
 ! D44   D(7,8,67,70)          -69.8593         estimate D2E/DX2                !
 ! D45   D(45,8,67,68)        -169.7031         estimate D2E/DX2                !
 ! D46   D(45,8,67,69)         -40.2649         estimate D2E/DX2                !
 ! D47   D(45,8,67,70)          74.941          estimate D2E/DX2                !
 ! D48   D(15,9,10,11)          -0.2756         estimate D2E/DX2                !
 ! D49   D(15,9,10,47)        -179.8649         estimate D2E/DX2                !
 ! D50   D(46,9,10,11)         178.804          estimate D2E/DX2                !
 ! D51   D(46,9,10,47)          -0.7854         estimate D2E/DX2                !
 ! D52   D(10,9,15,13)          -0.3324         estimate D2E/DX2                !
 ! D53   D(10,9,15,16)         176.7269         estimate D2E/DX2                !
 ! D54   D(46,9,15,13)        -179.4308         estimate D2E/DX2                !
 ! D55   D(46,9,15,16)          -2.3715         estimate D2E/DX2                !
 ! D56   D(9,10,11,12)           0.5097         estimate D2E/DX2                !
 ! D57   D(9,10,11,48)        -179.5189         estimate D2E/DX2                !
 ! D58   D(47,10,11,12)       -179.9015         estimate D2E/DX2                !
 ! D59   D(47,10,11,48)          0.07           estimate D2E/DX2                !
 ! D60   D(10,11,12,13)         -0.1336         estimate D2E/DX2                !
 ! D61   D(10,11,12,49)        179.9756         estimate D2E/DX2                !
 ! D62   D(48,11,12,13)        179.895          estimate D2E/DX2                !
 ! D63   D(48,11,12,49)          0.0042         estimate D2E/DX2                !
 ! D64   D(11,12,13,15)         -0.4779         estimate D2E/DX2                !
 ! D65   D(11,12,13,50)       -179.5982         estimate D2E/DX2                !
 ! D66   D(49,12,13,15)        179.4131         estimate D2E/DX2                !
 ! D67   D(49,12,13,50)          0.2929         estimate D2E/DX2                !
 ! D68   D(12,13,15,9)           0.7095         estimate D2E/DX2                !
 ! D69   D(12,13,15,16)       -176.3234         estimate D2E/DX2                !
 ! D70   D(50,13,15,9)         179.8467         estimate D2E/DX2                !
 ! D71   D(50,13,15,16)          2.8138         estimate D2E/DX2                !
 ! D72   D(45,14,16,15)       -168.8684         estimate D2E/DX2                !
 ! D73   D(45,14,16,17)         10.6451         estimate D2E/DX2                !
 ! D74   D(16,14,45,8)           8.7144         estimate D2E/DX2                !
 ! D75   D(9,15,16,14)          -3.6646         estimate D2E/DX2                !
 ! D76   D(9,15,16,17)         176.7715         estimate D2E/DX2                !
 ! D77   D(13,15,16,14)        173.3642         estimate D2E/DX2                !
 ! D78   D(13,15,16,17)         -6.1997         estimate D2E/DX2                !
 ! D79   D(7,18,19,21)        -178.7902         estimate D2E/DX2                !
 ! D80   D(18,19,21,24)        117.6875         estimate D2E/DX2                !
 ! D81   D(25,20,24,21)        157.9052         estimate D2E/DX2                !
 ! D82   D(25,20,24,22)        -85.8374         estimate D2E/DX2                !
 ! D83   D(25,20,24,23)         33.8988         estimate D2E/DX2                !
 ! D84   D(29,20,24,21)        -23.1209         estimate D2E/DX2                !
 ! D85   D(29,20,24,22)         93.1365         estimate D2E/DX2                !
 ! D86   D(29,20,24,23)       -147.1273         estimate D2E/DX2                !
 ! D87   D(24,20,25,26)        178.2865         estimate D2E/DX2                !
 ! D88   D(24,20,25,51)         -2.3122         estimate D2E/DX2                !
 ! D89   D(29,20,25,26)         -0.6624         estimate D2E/DX2                !
 ! D90   D(29,20,25,51)        178.7389         estimate D2E/DX2                !
 ! D91   D(24,20,29,28)       -178.5342         estimate D2E/DX2                !
 ! D92   D(24,20,29,55)          2.7403         estimate D2E/DX2                !
 ! D93   D(25,20,29,28)          0.4601         estimate D2E/DX2                !
 ! D94   D(25,20,29,55)       -178.2654         estimate D2E/DX2                !
 ! D95   D(19,21,24,20)        -77.5079         estimate D2E/DX2                !
 ! D96   D(19,21,24,22)        163.7436         estimate D2E/DX2                !
 ! D97   D(19,21,24,23)         42.55           estimate D2E/DX2                !
 ! D98   D(30,22,24,20)         27.9005         estimate D2E/DX2                !
 ! D99   D(30,22,24,21)        147.6098         estimate D2E/DX2                !
 ! D100  D(30,22,24,23)        -89.3818         estimate D2E/DX2                !
 ! D101  D(34,22,24,20)       -154.6304         estimate D2E/DX2                !
 ! D102  D(34,22,24,21)        -34.9211         estimate D2E/DX2                !
 ! D103  D(34,22,24,23)         88.0873         estimate D2E/DX2                !
 ! D104  D(24,22,30,31)        177.3214         estimate D2E/DX2                !
 ! D105  D(24,22,30,56)         -3.2305         estimate D2E/DX2                !
 ! D106  D(34,22,30,31)         -0.1171         estimate D2E/DX2                !
 ! D107  D(34,22,30,56)        179.3309         estimate D2E/DX2                !
 ! D108  D(24,22,34,33)       -177.5694         estimate D2E/DX2                !
 ! D109  D(24,22,34,60)          3.0977         estimate D2E/DX2                !
 ! D110  D(30,22,34,33)         -0.094          estimate D2E/DX2                !
 ! D111  D(30,22,34,60)       -179.4269         estimate D2E/DX2                !
 ! D112  D(35,23,24,20)         53.4544         estimate D2E/DX2                !
 ! D113  D(35,23,24,21)        -69.1074         estimate D2E/DX2                !
 ! D114  D(35,23,24,22)        172.5749         estimate D2E/DX2                !
 ! D115  D(39,23,24,20)       -132.1347         estimate D2E/DX2                !
 ! D116  D(39,23,24,21)        105.3034         estimate D2E/DX2                !
 ! D117  D(39,23,24,22)        -13.0143         estimate D2E/DX2                !
 ! D118  D(24,23,35,36)        173.6669         estimate D2E/DX2                !
 ! D119  D(24,23,35,61)         -6.1379         estimate D2E/DX2                !
 ! D120  D(39,23,35,36)         -0.8119         estimate D2E/DX2                !
 ! D121  D(39,23,35,61)        179.3832         estimate D2E/DX2                !
 ! D122  D(24,23,39,38)       -174.5058         estimate D2E/DX2                !
 ! D123  D(24,23,39,65)          5.5502         estimate D2E/DX2                !
 ! D124  D(35,23,39,38)         -0.177          estimate D2E/DX2                !
 ! D125  D(35,23,39,65)        179.879          estimate D2E/DX2                !
 ! D126  D(20,25,26,27)          0.387          estimate D2E/DX2                !
 ! D127  D(20,25,26,52)        179.8371         estimate D2E/DX2                !
 ! D128  D(51,25,26,27)       -179.0177         estimate D2E/DX2                !
 ! D129  D(51,25,26,52)          0.4325         estimate D2E/DX2                !
 ! D130  D(25,26,27,28)          0.0903         estimate D2E/DX2                !
 ! D131  D(25,26,27,53)        179.5718         estimate D2E/DX2                !
 ! D132  D(52,26,27,28)       -179.3577         estimate D2E/DX2                !
 ! D133  D(52,26,27,53)          0.1238         estimate D2E/DX2                !
 ! D134  D(26,27,28,29)         -0.2946         estimate D2E/DX2                !
 ! D135  D(26,27,28,54)        179.1174         estimate D2E/DX2                !
 ! D136  D(53,27,28,29)       -179.7756         estimate D2E/DX2                !
 ! D137  D(53,27,28,54)         -0.3635         estimate D2E/DX2                !
 ! D138  D(27,28,29,20)          0.0189         estimate D2E/DX2                !
 ! D139  D(27,28,29,55)        178.7375         estimate D2E/DX2                !
 ! D140  D(54,28,29,20)       -179.3982         estimate D2E/DX2                !
 ! D141  D(54,28,29,55)         -0.6795         estimate D2E/DX2                !
 ! D142  D(22,30,31,32)          0.1571         estimate D2E/DX2                !
 ! D143  D(22,30,31,57)        179.8125         estimate D2E/DX2                !
 ! D144  D(56,30,31,32)       -179.2949         estimate D2E/DX2                !
 ! D145  D(56,30,31,57)          0.3605         estimate D2E/DX2                !
 ! D146  D(30,31,32,33)          0.0136         estimate D2E/DX2                !
 ! D147  D(30,31,32,58)        179.8081         estimate D2E/DX2                !
 ! D148  D(57,31,32,33)       -179.6401         estimate D2E/DX2                !
 ! D149  D(57,31,32,58)          0.1544         estimate D2E/DX2                !
 ! D150  D(31,32,33,34)         -0.2264         estimate D2E/DX2                !
 ! D151  D(31,32,33,59)        179.6963         estimate D2E/DX2                !
 ! D152  D(58,32,33,34)        179.9791         estimate D2E/DX2                !
 ! D153  D(58,32,33,59)         -0.0982         estimate D2E/DX2                !
 ! D154  D(32,33,34,22)          0.265          estimate D2E/DX2                !
 ! D155  D(32,33,34,60)        179.5936         estimate D2E/DX2                !
 ! D156  D(59,33,34,22)       -179.658          estimate D2E/DX2                !
 ! D157  D(59,33,34,60)         -0.3295         estimate D2E/DX2                !
 ! D158  D(23,35,36,37)          1.0573         estimate D2E/DX2                !
 ! D159  D(23,35,36,62)       -178.3165         estimate D2E/DX2                !
 ! D160  D(61,35,36,37)       -179.1348         estimate D2E/DX2                !
 ! D161  D(61,35,36,62)          1.4914         estimate D2E/DX2                !
 ! D162  D(35,36,37,38)         -0.3185         estimate D2E/DX2                !
 ! D163  D(35,36,37,63)        179.6907         estimate D2E/DX2                !
 ! D164  D(62,36,37,38)        179.0477         estimate D2E/DX2                !
 ! D165  D(62,36,37,63)         -0.9431         estimate D2E/DX2                !
 ! D166  D(36,37,38,39)         -0.6754         estimate D2E/DX2                !
 ! D167  D(36,37,38,64)        179.6865         estimate D2E/DX2                !
 ! D168  D(63,37,38,39)        179.3154         estimate D2E/DX2                !
 ! D169  D(63,37,38,64)         -0.3227         estimate D2E/DX2                !
 ! D170  D(37,38,39,23)          0.9179         estimate D2E/DX2                !
 ! D171  D(37,38,39,65)       -179.1378         estimate D2E/DX2                !
 ! D172  D(64,38,39,23)       -179.4423         estimate D2E/DX2                !
 ! D173  D(64,38,39,65)          0.5021         estimate D2E/DX2                !
 ! D174  D(8,67,70,71)          93.9197         estimate D2E/DX2                !
 ! D175  D(8,67,70,72)         -79.3758         estimate D2E/DX2                !
 ! D176  D(68,67,70,71)        -21.1971         estimate D2E/DX2                !
 ! D177  D(68,67,70,72)        165.5074         estimate D2E/DX2                !
 ! D178  D(69,67,70,71)       -152.6569         estimate D2E/DX2                !
 ! D179  D(69,67,70,72)         34.0476         estimate D2E/DX2                !
 ! D180  D(67,70,71,73)       -172.3166         estimate D2E/DX2                !
 ! D181  D(67,70,71,74)          6.8148         estimate D2E/DX2                !
 ! D182  D(72,70,71,73)          0.8426         estimate D2E/DX2                !
 ! D183  D(72,70,71,74)        179.974          estimate D2E/DX2                !
 ! D184  D(67,70,72,75)        172.4362         estimate D2E/DX2                !
 ! D185  D(67,70,72,76)         -7.0515         estimate D2E/DX2                !
 ! D186  D(71,70,72,75)         -0.7498         estimate D2E/DX2                !
 ! D187  D(71,70,72,76)        179.7625         estimate D2E/DX2                !
 ! D188  D(70,71,73,77)          0.3521         estimate D2E/DX2                !
 ! D189  D(70,71,73,78)        179.2791         estimate D2E/DX2                !
 ! D190  D(74,71,73,77)       -178.7731         estimate D2E/DX2                !
 ! D191  D(74,71,73,78)          0.1539         estimate D2E/DX2                !
 ! D192  D(70,72,75,77)         -0.5392         estimate D2E/DX2                !
 ! D193  D(70,72,75,79)       -179.8013         estimate D2E/DX2                !
 ! D194  D(76,72,75,77)        178.9468         estimate D2E/DX2                !
 ! D195  D(76,72,75,79)         -0.3153         estimate D2E/DX2                !
 ! D196  D(71,73,77,75)         -1.5945         estimate D2E/DX2                !
 ! D197  D(71,73,77,80)        176.5346         estimate D2E/DX2                !
 ! D198  D(78,73,77,75)        179.4808         estimate D2E/DX2                !
 ! D199  D(78,73,77,80)         -2.3902         estimate D2E/DX2                !
 ! D200  D(72,75,77,73)          1.6892         estimate D2E/DX2                !
 ! D201  D(72,75,77,80)       -176.4282         estimate D2E/DX2                !
 ! D202  D(79,75,77,73)       -179.0504         estimate D2E/DX2                !
 ! D203  D(79,75,77,80)          2.8322         estimate D2E/DX2                !
 ! D204  D(73,77,80,81)        160.6839         estimate D2E/DX2                !
 ! D205  D(73,77,80,82)        -79.741          estimate D2E/DX2                !
 ! D206  D(73,77,80,83)         39.2525         estimate D2E/DX2                !
 ! D207  D(75,77,80,81)        -21.2303         estimate D2E/DX2                !
 ! D208  D(75,77,80,82)         98.3448         estimate D2E/DX2                !
 ! D209  D(75,77,80,83)       -142.6616         estimate D2E/DX2                !
 --------------------------------------------------------------------------------
 Stoichiometry    C40H34N3O4PS
 Framework group  C1[X(C40H34N3O4PS)]
 Deg. of freedom   243
 Full point group                 C1      NOp   1
 Largest Abelian subgroup         C1      NOp   1
 Largest concise Abelian subgroup C1      NOp   1
                         Standard orientation:                         
 ---------------------------------------------------------------------
 Center     Atomic      Atomic             Coordinates (Angstroms)
 Number     Number       Type             X           Y           Z
 ---------------------------------------------------------------------
      1          6           0       -2.923104   -1.366151   -2.642118
      2          6           0       -3.983927   -1.079776   -3.497784
      3          6           0       -4.748632    0.065081   -3.295136
      4          6           0       -4.442207    0.925556   -2.242124
      5          6           0       -3.376923    0.645289   -1.395074
      6          6           0       -2.616745   -0.507962   -1.587452
      7          6           0       -1.483055   -0.883860   -0.643312
      8          7           0       -1.664422   -0.567173    0.767821
      9          6           0       -0.295274    4.661117    0.918736
     10          6           0        0.302387    5.917254    0.928790
     11          6           0        1.151203    6.293494   -0.111638
     12          6           0        1.391844    5.414446   -1.166558
     13          6           0        0.787273    4.161203   -1.179469
     14          8           0       -1.289208    2.054099    0.923642
     15          6           0       -0.053237    3.775679   -0.133277
     16          6           0       -0.647120    2.390668   -0.096402
     17          8           0       -0.431762    1.665934   -1.124647
     18          6           0       -0.171851   -0.279307   -1.021571
     19          7           0        0.947168   -0.580767   -1.238950
     20          6           0        3.167802    0.462215    1.012770
     21          7           0        2.215631   -0.315034   -1.550750
     22          6           0        4.858936   -0.801915   -1.044728
     23          6           0        2.788894   -2.349832    0.405567
     24         15           0        3.211483   -0.752133   -0.328836
     25          6           0        3.542567    0.138198    2.321314
     26          6           0        3.523397    1.120876    3.305320
     27          6           0        3.124746    2.418719    2.988337
     28          6           0        2.741888    2.740369    1.688419
     29          6           0        2.762992    1.763095    0.698976
     30          6           0        5.978688   -0.474921   -0.274168
     31          6           0        7.249744   -0.573311   -0.829965
     32          6           0        7.403077   -0.992832   -2.149494
     33          6           0        6.286907   -1.315385   -2.918828
     34          6           0        5.012582   -1.224120   -2.369803
     35          6           0        1.604667   -2.452816    1.150229
     36          6           0        1.184714   -3.693152    1.615526
     37          6           0        1.952949   -4.827928    1.359729
     38          6           0        3.137212   -4.726294    0.633792
     39          6           0        3.553677   -3.490683    0.146801
     40          1           0       -2.339061   -2.271442   -2.789944
     41          1           0       -4.218096   -1.757487   -4.313104
     42          1           0       -5.584553    0.285445   -3.952441
     43          1           0       -5.040427    1.816060   -2.074653
     44          1           0       -1.313609   -1.963632   -0.713944
     45          1           0       -1.633390    0.469406    0.978737
     46          1           0       -0.942700    4.345660    1.729764
     47          1           0        0.112526    6.601343    1.750554
     48          1           0        1.624268    7.271088   -0.100401
     49          1           0        2.052169    5.705532   -1.977988
     50          1           0        0.969796    3.463657   -1.990135
     51          1           0        3.838292   -0.876010    2.574453
     52          1           0        3.811048    0.871590    4.321563
     53          1           0        3.104933    3.180325    3.761741
     54          1           0        2.417529    3.746765    1.442597
     55          1           0        2.446635    2.000267   -0.312311
     56          1           0        5.862727   -0.136578    0.750961
     57          1           0        8.119234   -0.316845   -0.233745
     58          1           0        8.396403   -1.065547   -2.581223
     59          1           0        6.407792   -1.637269   -3.947992
     60          1           0        4.138013   -1.467176   -2.964233
     61          1           0        1.004911   -1.572925    1.367803
     62          1           0        0.253537   -3.768514    2.167224
     63          1           0        1.626349   -5.795493    1.728082
     64          1           0        3.736286   -5.610249    0.440199
     65          1           0        4.470327   -3.418083   -0.430644
     66          1           0       -3.152380    1.308629   -0.566560
     67         16           0       -2.656692   -1.485374    1.700286
     68          8           0       -2.355814   -2.884937    1.404682
     69          8           0       -2.505881   -0.969644    3.055361
     70          6           0       -4.322782   -1.170997    1.169973
     71          6           0       -4.909337   -2.005429    0.223164
     72          6           0       -4.964306   -0.014848    1.604219
     73          6           0       -6.146431   -1.663059   -0.304542
     74          1           0       -4.395181   -2.902125   -0.104197
     75          6           0       -6.203142    0.311655    1.066837
     76          1           0       -4.497354    0.624995    2.345910
     77          6           0       -6.802334   -0.494980    0.095065
     78          1           0       -6.602737   -2.305233   -1.052537
     79          1           0       -6.706917    1.214712    1.399807
     80          6           0       -8.106918   -0.098295   -0.543873
     81          1           0       -8.658373    0.614636    0.075162
     82          1           0       -7.920137    0.376109   -1.514905
     83          1           0       -8.745298   -0.968803   -0.722273
 ---------------------------------------------------------------------
 Rotational constants (GHZ):           0.0855538           0.0435837           0.0364714
 Electric field and nuclear coordinate derivatives read from checkpoint file.
 Rotating derivatives to standard orientation.
 Full mass-weighted force constant matrix:
 Low frequencies --- -317.9324   -1.5663   -0.0140    0.0106    0.0145    2.6332
 Low frequencies ---    5.7467   11.5467   14.3102
 ******    1 imaginary frequencies (negative Signs) ****** 
 Diagonal vibrational polarizability:
      438.2551904     818.5186945     315.3931528
 Harmonic frequencies (cm**-1), IR intensities (KM/Mole), Raman scattering
 activities (A**4/AMU), depolarization ratios for plane and unpolarized
 incident light, reduced masses (AMU), force constants (mDyne/A),
 and normal coordinates:
                      1                      2                      3
                      A                      A                      A
 Frequencies --   -317.9323                11.2392                14.2573
 Red. masses --      9.5393                 5.6356                 6.3138
 Frc consts  --      0.5681                 0.0004                 0.0008
 IR Inten    --    863.5831                 1.0121                 3.5531
  Atom  AN      X      Y      Z        X      Y      Z        X      Y      Z
     1   6     0.01   0.01   0.02    -0.02  -0.03   0.00     0.02  -0.02   0.05
     2   6     0.01  -0.00   0.02    -0.04  -0.04   0.02     0.02  -0.05   0.03
     3   6    -0.00  -0.01  -0.00    -0.02  -0.03   0.02     0.01  -0.06   0.00
     4   6    -0.02   0.00  -0.01     0.00  -0.02   0.00    -0.01  -0.03  -0.02
     5   6    -0.03   0.01   0.00     0.02  -0.02  -0.01    -0.02   0.00  -0.00
     6   6    -0.00   0.02   0.02     0.01  -0.02  -0.01    -0.00   0.01   0.03
     7   6     0.08   0.17  -0.03     0.02  -0.02  -0.03    -0.01   0.04   0.05
     8   7    -0.01  -0.02   0.02     0.04  -0.02  -0.03    -0.02   0.09   0.04
     9   6    -0.02  -0.07  -0.05    -0.04   0.01  -0.07     0.03   0.07  -0.06
    10   6    -0.02  -0.06  -0.02    -0.06   0.02  -0.09     0.07   0.05  -0.07
    11   6    -0.02  -0.04  -0.01    -0.05   0.02  -0.08     0.10   0.01  -0.06
    12   6    -0.01  -0.03  -0.02    -0.03   0.01  -0.07     0.11  -0.02  -0.04
    13   6     0.01  -0.04  -0.04    -0.01  -0.01  -0.06     0.07  -0.01  -0.02
    14   8     0.03  -0.02  -0.03     0.02  -0.02  -0.04    -0.04   0.10  -0.03
    15   6    -0.00  -0.07  -0.07    -0.01  -0.00  -0.06     0.03   0.04  -0.04
    16   6     0.06  -0.09   0.04     0.01  -0.01  -0.05    -0.01   0.06  -0.03
    17   8     0.20  -0.28   0.06     0.01  -0.02  -0.04    -0.01   0.03  -0.01
    18   6    -0.03   0.65   0.04     0.02  -0.02  -0.04    -0.01   0.03   0.04
    19   7    -0.11  -0.16   0.08     0.02  -0.01  -0.03    -0.01   0.03   0.03
    20   6     0.01  -0.01   0.01    -0.05  -0.03   0.02    -0.01  -0.05   0.04
    21   7    -0.06   0.15   0.06     0.02  -0.01  -0.02    -0.01   0.03   0.02
    22   6    -0.01   0.01  -0.00     0.02   0.02   0.04    -0.01   0.02  -0.01
    23   6    -0.01   0.01  -0.01     0.01  -0.03  -0.03     0.00  -0.03  -0.04
    24  15    -0.04   0.02  -0.04    -0.00  -0.01   0.00    -0.01  -0.01   0.00
    25   6     0.01   0.00   0.01    -0.10  -0.05   0.03    -0.00  -0.08   0.03
    26   6    -0.00   0.00   0.01    -0.15  -0.06   0.04    -0.02  -0.11   0.06
    27   6    -0.00   0.00   0.01    -0.14  -0.06   0.04    -0.05  -0.11   0.09
    28   6     0.01  -0.00   0.01    -0.09  -0.04   0.03    -0.06  -0.08   0.11
    29   6     0.01  -0.01   0.01    -0.05  -0.03   0.02    -0.04  -0.05   0.08
    30   6    -0.01   0.00  -0.00    -0.01   0.00   0.08    -0.01  -0.02   0.01
    31   6    -0.01  -0.00   0.00     0.01   0.03   0.12    -0.01   0.00  -0.00
    32   6    -0.00  -0.00   0.00     0.05   0.08   0.11    -0.01   0.06  -0.02
    33   6    -0.00   0.00   0.00     0.07   0.10   0.06    -0.02   0.10  -0.03
    34   6    -0.00   0.01   0.00     0.06   0.07   0.03    -0.02   0.08  -0.03
    35   6    -0.00  -0.00  -0.01    -0.01  -0.06  -0.06     0.01  -0.06  -0.04
    36   6     0.00  -0.00   0.00     0.00  -0.07  -0.09     0.01  -0.07  -0.07
    37   6     0.00  -0.00   0.00     0.02  -0.06  -0.09     0.01  -0.07  -0.11
    38   6     0.00   0.00   0.00     0.03  -0.03  -0.07     0.01  -0.04  -0.12
    39   6    -0.00   0.01  -0.00     0.03  -0.02  -0.04     0.00  -0.02  -0.09
    40   1     0.04   0.03   0.02    -0.03  -0.04   0.00     0.03  -0.02   0.07
    41   1     0.02  -0.01   0.02    -0.06  -0.05   0.03     0.04  -0.07   0.04
    42   1     0.00  -0.02  -0.01    -0.03  -0.03   0.03     0.01  -0.08  -0.01
    43   1    -0.03  -0.00  -0.02     0.01  -0.01   0.00    -0.03  -0.03  -0.04
    44   1     0.38   0.24  -0.15     0.02  -0.02  -0.03    -0.00   0.04   0.09
    45   1    -0.06  -0.10   0.14     0.04  -0.02  -0.03    -0.03   0.09   0.01
    46   1    -0.02  -0.07  -0.05    -0.04   0.01  -0.08     0.00   0.11  -0.07
    47   1    -0.03  -0.08  -0.01    -0.08   0.02  -0.10     0.07   0.07  -0.09
    48   1    -0.02  -0.04   0.00    -0.07   0.02  -0.09     0.13  -0.01  -0.07
    49   1    -0.00  -0.02  -0.01    -0.03   0.00  -0.07     0.13  -0.06  -0.02
    50   1     0.06  -0.02  -0.05     0.01  -0.01  -0.05     0.07  -0.03  -0.01
    51   1     0.01   0.00   0.01    -0.11  -0.05   0.02     0.01  -0.08  -0.00
    52   1    -0.00   0.00   0.01    -0.19  -0.08   0.05    -0.01  -0.13   0.05
    53   1    -0.00   0.00   0.01    -0.18  -0.07   0.05    -0.06  -0.13   0.12
    54   1     0.02   0.00   0.00    -0.09  -0.04   0.04    -0.08  -0.08   0.14
    55   1     0.04  -0.02   0.00    -0.01  -0.02   0.01    -0.05  -0.02   0.08
    56   1    -0.01   0.00  -0.00    -0.04  -0.04   0.09    -0.00  -0.07   0.02
    57   1    -0.01  -0.01   0.00    -0.01   0.02   0.15    -0.01  -0.03   0.00
    58   1    -0.00  -0.00   0.00     0.06   0.11   0.13    -0.02   0.08  -0.03
    59   1    -0.00  -0.00   0.00     0.10   0.14   0.05    -0.02   0.14  -0.05
    60   1    -0.01   0.01   0.00     0.08   0.08  -0.00    -0.02   0.10  -0.03
    61   1    -0.01  -0.01  -0.03    -0.02  -0.07  -0.05     0.01  -0.07  -0.00
    62   1     0.00  -0.00  -0.00    -0.01  -0.10  -0.10     0.02  -0.09  -0.07
    63   1     0.01  -0.00   0.00     0.03  -0.07  -0.11     0.02  -0.08  -0.14
    64   1     0.01   0.01   0.00     0.05  -0.02  -0.07     0.01  -0.03  -0.15
    65   1    -0.01   0.01  -0.01     0.04   0.01  -0.02    -0.00  -0.00  -0.09
    66   1    -0.06   0.02   0.01     0.03  -0.01  -0.02    -0.03   0.03  -0.01
    67  16    -0.01  -0.02  -0.00     0.04  -0.01  -0.02    -0.00   0.10   0.07
    68   8    -0.00  -0.01  -0.00     0.00  -0.01  -0.04     0.04   0.10   0.13
    69   8    -0.01  -0.01  -0.00     0.08  -0.03  -0.01    -0.04   0.16   0.05
    70   6    -0.00  -0.01   0.00     0.04   0.04   0.03    -0.01   0.02   0.03
    71   6    -0.00  -0.00  -0.00    -0.02   0.05   0.05     0.05  -0.03   0.04
    72   6    -0.00  -0.01   0.00     0.09   0.06   0.04    -0.06   0.01  -0.02
    73   6    -0.00   0.00  -0.00    -0.03   0.09   0.09     0.05  -0.09   0.00
    74   1    -0.00  -0.00  -0.01    -0.06   0.03   0.04     0.09  -0.02   0.08
    75   6    -0.00  -0.00   0.00     0.08   0.10   0.08    -0.06  -0.05  -0.06
    76   1    -0.00  -0.01   0.01     0.13   0.05   0.02    -0.10   0.05  -0.03
    77   6    -0.00   0.00  -0.00     0.02   0.11   0.11    -0.01  -0.10  -0.05
    78   1    -0.00   0.00  -0.00    -0.08   0.10   0.11     0.09  -0.13   0.01
    79   1     0.00  -0.00   0.00     0.12   0.12   0.09    -0.10  -0.06  -0.09
    80   6    -0.00   0.00  -0.00     0.01   0.15   0.15    -0.01  -0.17  -0.09
    81   1    -0.00   0.00  -0.00     0.06   0.18   0.16    -0.05  -0.18  -0.12
    82   1    -0.00   0.00  -0.00    -0.01   0.13   0.13     0.00  -0.17  -0.09
    83   1    -0.00   0.00   0.00    -0.03   0.17   0.19     0.04  -0.20  -0.09
                      4                      5                      6
                      A                      A                      A
 Frequencies --     19.9658                24.1485                26.8145
 Red. masses --      5.7502                 4.8897                 5.3599
 Frc consts  --      0.0014                 0.0017                 0.0023
 IR Inten    --      1.9384                 0.4451                 0.3352
  Atom  AN      X      Y      Z        X      Y      Z        X      Y      Z
     1   6    -0.03   0.15  -0.04     0.00   0.06  -0.00    -0.06   0.01  -0.02
     2   6    -0.03   0.19  -0.01     0.02   0.10  -0.01    -0.07   0.01  -0.00
     3   6    -0.04   0.18   0.06     0.04   0.11  -0.00    -0.06   0.01   0.01
     4   6    -0.03   0.13   0.10     0.03   0.08   0.02    -0.05   0.01   0.01
     5   6    -0.02   0.08   0.07     0.01   0.04   0.04    -0.03   0.00  -0.01
     6   6    -0.02   0.10   0.00    -0.00   0.03   0.02    -0.04   0.00  -0.02
     7   6    -0.01   0.04  -0.03    -0.02  -0.01   0.03    -0.03  -0.00  -0.03
     8   7     0.02   0.02  -0.02    -0.01  -0.01   0.03    -0.02  -0.00  -0.03
     9   6     0.02   0.03  -0.03    -0.03   0.01  -0.02     0.12  -0.05   0.01
    10   6    -0.01   0.04  -0.05    -0.06   0.03  -0.05     0.19  -0.08   0.04
    11   6    -0.03   0.05  -0.07    -0.08   0.03  -0.06     0.23  -0.11   0.05
    12   6    -0.03   0.05  -0.07    -0.06   0.02  -0.04     0.18  -0.10   0.03
    13   6    -0.01   0.04  -0.05    -0.03  -0.00  -0.02     0.10  -0.07   0.00
    14   8     0.07   0.01   0.00     0.03  -0.01   0.03    -0.00  -0.00  -0.04
    15   6     0.01   0.03  -0.03    -0.01  -0.00  -0.00     0.07  -0.04  -0.01
    16   6     0.04   0.02  -0.01     0.02  -0.02   0.02     0.01  -0.02  -0.03
    17   8     0.02   0.03  -0.02     0.02  -0.03   0.03    -0.02  -0.01  -0.04
    18   6     0.00   0.02  -0.03    -0.00  -0.04   0.03    -0.03  -0.02  -0.03
    19   7    -0.01  -0.00  -0.04    -0.01  -0.05   0.03    -0.03  -0.02  -0.02
    20   6    -0.04  -0.01  -0.02    -0.01  -0.05   0.01    -0.04   0.01  -0.00
    21   7     0.00  -0.03  -0.03    -0.01  -0.07   0.01    -0.02  -0.02  -0.01
    22   6    -0.01  -0.04   0.02    -0.00  -0.00  -0.02    -0.02   0.04   0.01
    23   6    -0.03  -0.02   0.00     0.04  -0.05   0.01    -0.00   0.00   0.01
    24  15    -0.02  -0.02  -0.01     0.01  -0.04   0.01    -0.03   0.00   0.00
    25   6    -0.09  -0.00  -0.00     0.00  -0.04   0.00    -0.11   0.01   0.02
    26   6    -0.11   0.01  -0.01    -0.01  -0.05   0.01    -0.10   0.02   0.00
    27   6    -0.07   0.01  -0.04    -0.04  -0.06   0.02    -0.01   0.04  -0.04
    28   6    -0.01   0.01  -0.06    -0.05  -0.06   0.02     0.07   0.05  -0.06
    29   6    -0.00  -0.00  -0.05    -0.04  -0.05   0.01     0.05   0.03  -0.04
    30   6    -0.02  -0.06   0.05    -0.01   0.17  -0.08    -0.04   0.13   0.00
    31   6    -0.01  -0.08   0.08    -0.02   0.22  -0.11    -0.04   0.18   0.00
    32   6     0.02  -0.07   0.08    -0.02   0.08  -0.07    -0.01   0.14   0.02
    33   6     0.03  -0.04   0.05    -0.01  -0.10   0.00     0.00   0.05   0.03
    34   6     0.02  -0.03   0.02    -0.00  -0.14   0.02    -0.00   0.00   0.03
    35   6    -0.04  -0.01  -0.01     0.04  -0.08  -0.00    -0.02  -0.02  -0.02
    36   6    -0.03  -0.01   0.00     0.07  -0.08   0.01     0.01  -0.03  -0.00
    37   6    -0.02  -0.01   0.03     0.11  -0.06   0.04     0.06  -0.01   0.04
    38   6    -0.02  -0.01   0.04     0.12  -0.04   0.05     0.07   0.02   0.07
    39   6    -0.02  -0.02   0.03     0.08  -0.03   0.04     0.04   0.02   0.06
    40   1    -0.03   0.16  -0.09    -0.01   0.05  -0.01    -0.06   0.00  -0.03
    41   1    -0.04   0.24  -0.05     0.02   0.12  -0.03    -0.08   0.01  -0.00
    42   1    -0.04   0.21   0.08     0.05   0.14  -0.01    -0.07   0.01   0.02
    43   1    -0.03   0.12   0.15     0.05   0.08   0.03    -0.04   0.01   0.02
    44   1    -0.04   0.04  -0.05    -0.05  -0.01   0.02    -0.04  -0.01  -0.03
    45   1     0.04   0.01   0.00     0.01  -0.01   0.03    -0.02  -0.00  -0.03
    46   1     0.04   0.03  -0.02    -0.01   0.01  -0.01     0.10  -0.03  -0.00
    47   1    -0.00   0.05  -0.05    -0.07   0.04  -0.06     0.23  -0.09   0.05
    48   1    -0.05   0.06  -0.08    -0.11   0.04  -0.08     0.29  -0.14   0.08
    49   1    -0.05   0.06  -0.08    -0.08   0.02  -0.05     0.20  -0.13   0.04
    50   1    -0.01   0.04  -0.05    -0.02  -0.01  -0.00     0.06  -0.06  -0.01
    51   1    -0.12  -0.01   0.02     0.03  -0.04  -0.00    -0.18  -0.00   0.04
    52   1    -0.15   0.01  -0.00    -0.00  -0.05   0.01    -0.16   0.02   0.02
    53   1    -0.08   0.02  -0.05    -0.05  -0.06   0.02     0.01   0.06  -0.05
    54   1     0.02   0.01  -0.08    -0.07  -0.06   0.03     0.14   0.06  -0.09
    55   1     0.04  -0.01  -0.06    -0.04  -0.05   0.02     0.10   0.03  -0.06
    56   1    -0.04  -0.07   0.06    -0.01   0.28  -0.12    -0.06   0.16  -0.01
    57   1    -0.02  -0.10   0.11    -0.02   0.36  -0.16    -0.05   0.25  -0.01
    58   1     0.03  -0.08   0.11    -0.02   0.12  -0.09    -0.01   0.18   0.02
    59   1     0.05  -0.03   0.05    -0.01  -0.20   0.03     0.02   0.02   0.04
    60   1     0.03  -0.01  -0.00    -0.00  -0.27   0.07     0.01  -0.06   0.03
    61   1    -0.05  -0.02  -0.03     0.01  -0.09  -0.02    -0.06  -0.04  -0.05
    62   1    -0.04  -0.01  -0.01     0.07  -0.10   0.00    -0.00  -0.05  -0.03
    63   1    -0.02  -0.01   0.04     0.13  -0.07   0.05     0.08  -0.01   0.06
    64   1    -0.01  -0.01   0.06     0.15  -0.02   0.07     0.11   0.03   0.11
    65   1    -0.01  -0.02   0.04     0.09  -0.01   0.05     0.06   0.04   0.08
    66   1    -0.01   0.04   0.10     0.01   0.02   0.05    -0.02   0.00  -0.01
    67  16     0.06  -0.01  -0.00    -0.03   0.01   0.03    -0.01  -0.01  -0.02
    68   8     0.09   0.00  -0.00    -0.03   0.00   0.04    -0.01  -0.01  -0.03
    69   8     0.06   0.00  -0.01    -0.04   0.01   0.02    -0.00  -0.01  -0.02
    70   6     0.05  -0.06   0.01    -0.02   0.01   0.00    -0.02  -0.01  -0.01
    71   6     0.09  -0.05  -0.03    -0.00   0.02  -0.02    -0.03  -0.01  -0.00
    72   6    -0.01  -0.11   0.05    -0.02   0.01   0.00    -0.02  -0.02   0.01
    73   6     0.08  -0.08  -0.02     0.01   0.04  -0.04    -0.04  -0.02   0.02
    74   1     0.13  -0.01  -0.06     0.00   0.02  -0.01    -0.02  -0.01  -0.01
    75   6    -0.02  -0.14   0.06    -0.01   0.03  -0.03    -0.03  -0.02   0.03
    76   1    -0.04  -0.12   0.08    -0.03   0.00   0.02    -0.02  -0.02   0.01
    77   6     0.02  -0.13   0.02     0.01   0.04  -0.05    -0.04  -0.03   0.03
    78   1     0.11  -0.07  -0.05     0.03   0.05  -0.06    -0.04  -0.02   0.02
    79   1    -0.07  -0.18   0.09    -0.01   0.03  -0.03    -0.03  -0.03   0.04
    80   6     0.01  -0.16   0.03     0.04   0.06  -0.08    -0.06  -0.04   0.06
    81   1    -0.02  -0.21   0.05     0.02   0.05  -0.09    -0.05  -0.04   0.07
    82   1    -0.01  -0.13   0.04     0.07   0.08  -0.07    -0.08  -0.04   0.05
    83   1     0.04  -0.19   0.00     0.04   0.07  -0.12    -0.05  -0.04   0.08
                      7                      8                      9
                      A                      A                      A
 Frequencies --     29.2316                35.5857                39.2766
 Red. masses --      4.4502                 5.3962                 5.5718
 Frc consts  --      0.0022                 0.0040                 0.0051
 IR Inten    --      0.6301                 2.3772                 0.6460
  Atom  AN      X      Y      Z        X      Y      Z        X      Y      Z
     1   6    -0.01   0.02   0.01    -0.01   0.05  -0.06     0.00  -0.01  -0.00
     2   6     0.00   0.05  -0.00    -0.02   0.07  -0.05    -0.00  -0.05  -0.00
     3   6     0.02   0.06  -0.00    -0.03   0.06  -0.02    -0.02  -0.05  -0.03
     4   6     0.02   0.04   0.01    -0.03   0.03   0.00    -0.02  -0.02  -0.05
     5   6     0.01   0.01   0.02    -0.03   0.02  -0.01    -0.01   0.01  -0.05
     6   6    -0.01   0.00   0.02    -0.02   0.03  -0.04     0.00   0.02  -0.03
     7   6    -0.02  -0.02   0.02    -0.02   0.01  -0.05     0.01   0.04  -0.02
     8   7    -0.02  -0.02   0.02    -0.02  -0.00  -0.05     0.01   0.05  -0.03
     9   6     0.02  -0.02   0.01    -0.01   0.02  -0.08    -0.10   0.03   0.02
    10   6     0.01  -0.02  -0.01    -0.01   0.02  -0.09    -0.09   0.03   0.08
    11   6    -0.02  -0.02  -0.03     0.01   0.00  -0.07    -0.00   0.03   0.15
    12   6    -0.04  -0.02  -0.03     0.04  -0.02  -0.05     0.06   0.04   0.16
    13   6    -0.03  -0.02  -0.01     0.03  -0.01  -0.05     0.05   0.05   0.09
    14   8     0.03  -0.03   0.04     0.01   0.00  -0.06    -0.13   0.06  -0.08
    15   6     0.00  -0.02   0.01     0.01   0.00  -0.06    -0.03   0.05   0.02
    16   6     0.01  -0.03   0.03    -0.01   0.01  -0.07    -0.04   0.05  -0.02
    17   8     0.00  -0.03   0.03    -0.03   0.02  -0.08     0.05   0.04   0.00
    18   6    -0.01  -0.04   0.02    -0.01  -0.00  -0.03     0.00   0.05  -0.03
    19   7    -0.02  -0.05   0.01     0.01   0.02   0.03    -0.00   0.01  -0.04
    20   6    -0.01  -0.01  -0.02     0.05  -0.01   0.07    -0.02  -0.02  -0.04
    21   7    -0.02  -0.05   0.00     0.01   0.03   0.06     0.00  -0.01  -0.04
    22   6    -0.01   0.00  -0.02     0.01   0.01   0.01    -0.00  -0.03  -0.04
    23   6     0.03  -0.02   0.02     0.03   0.01   0.04     0.03  -0.01  -0.02
    24  15    -0.01  -0.02  -0.00     0.02   0.01   0.04    -0.00  -0.01  -0.04
    25   6    -0.04   0.01  -0.01     0.16  -0.02   0.03    -0.04  -0.02  -0.03
    26   6    -0.03   0.02  -0.02     0.18  -0.05   0.06    -0.09  -0.04  -0.02
    27   6     0.00   0.03  -0.05     0.07  -0.07   0.12    -0.10  -0.04  -0.02
    28   6     0.03   0.01  -0.06    -0.04  -0.06   0.16    -0.07  -0.03  -0.02
    29   6     0.02  -0.00  -0.05    -0.06  -0.03   0.13    -0.03  -0.02  -0.03
    30   6    -0.00  -0.17   0.04     0.03  -0.04  -0.00     0.00  -0.06  -0.03
    31   6    -0.00  -0.14   0.03     0.02  -0.04  -0.03     0.00  -0.11  -0.02
    32   6    -0.02   0.07  -0.04    -0.02   0.01  -0.05     0.00  -0.13  -0.01
    33   6    -0.03   0.24  -0.09    -0.05   0.05  -0.04    -0.00  -0.10  -0.02
    34   6    -0.03   0.20  -0.08    -0.03   0.05  -0.01    -0.01  -0.05  -0.04
    35   6     0.03  -0.04   0.02     0.02   0.01   0.04     0.01  -0.04  -0.06
    36   6     0.07  -0.05   0.04     0.04   0.01   0.06     0.07  -0.04   0.01
    37   6     0.11  -0.03   0.07     0.05   0.02   0.09     0.15  -0.00   0.12
    38   6     0.11  -0.01   0.07     0.06   0.02   0.09     0.17   0.02   0.15
    39   6     0.07  -0.00   0.04     0.04   0.01   0.07     0.11   0.02   0.08
    40   1    -0.02   0.01   0.00    -0.01   0.06  -0.09     0.01  -0.01   0.01
    41   1     0.00   0.06  -0.01    -0.02   0.09  -0.07    -0.00  -0.07   0.01
    42   1     0.03   0.08  -0.01    -0.03   0.07  -0.01    -0.03  -0.08  -0.03
    43   1     0.03   0.05   0.01    -0.04   0.02   0.03    -0.03  -0.03  -0.07
    44   1    -0.04  -0.02   0.02    -0.03   0.01  -0.06     0.02   0.05  -0.01
    45   1    -0.00  -0.02   0.03    -0.02  -0.01  -0.04    -0.04   0.05  -0.04
    46   1     0.04  -0.03   0.03    -0.03   0.03  -0.09    -0.17   0.03  -0.03
    47   1     0.02  -0.02  -0.00    -0.03   0.03  -0.10    -0.14   0.02   0.08
    48   1    -0.03  -0.01  -0.04     0.02  -0.00  -0.08     0.01   0.02   0.21
    49   1    -0.06  -0.01  -0.04     0.06  -0.03  -0.04     0.13   0.05   0.21
    50   1    -0.04  -0.02  -0.01     0.04  -0.03  -0.04     0.10   0.06   0.09
    51   1    -0.07   0.00   0.02     0.24  -0.01  -0.01    -0.04  -0.02  -0.04
    52   1    -0.06   0.03  -0.01     0.27  -0.06   0.03    -0.11  -0.05  -0.02
    53   1     0.01   0.04  -0.06     0.09  -0.09   0.14    -0.14  -0.05  -0.01
    54   1     0.06   0.02  -0.08    -0.13  -0.07   0.21    -0.08  -0.03  -0.02
    55   1     0.04  -0.01  -0.05    -0.14  -0.02   0.16    -0.01  -0.01  -0.04
    56   1     0.01  -0.32   0.09     0.06  -0.07   0.01     0.00  -0.05  -0.04
    57   1     0.01  -0.27   0.08     0.03  -0.08  -0.05     0.01  -0.14  -0.02
    58   1    -0.02   0.09  -0.04    -0.03   0.01  -0.08     0.00  -0.17  -0.00
    59   1    -0.04   0.40  -0.14    -0.07   0.09  -0.06    -0.00  -0.11  -0.02
    60   1    -0.03   0.33  -0.12    -0.05   0.09   0.00    -0.01  -0.03  -0.04
    61   1     0.01  -0.06   0.00     0.01   0.01   0.02    -0.05  -0.06  -0.13
    62   1     0.07  -0.07   0.04     0.04   0.01   0.06     0.06  -0.06  -0.02
    63   1     0.14  -0.03   0.09     0.07   0.02   0.11     0.20  -0.00   0.17
    64   1     0.14   0.01   0.09     0.07   0.02   0.11     0.24   0.05   0.23
    65   1     0.07   0.02   0.04     0.04   0.02   0.07     0.13   0.04   0.11
    66   1     0.01   0.00   0.03    -0.03  -0.00   0.00    -0.02   0.03  -0.07
    67  16    -0.03  -0.00   0.02    -0.02  -0.02  -0.06     0.02   0.04  -0.02
    68   8    -0.04  -0.01   0.04    -0.02  -0.01  -0.10     0.03   0.05  -0.02
    69   8    -0.04   0.01   0.02    -0.00  -0.05  -0.05     0.03   0.05  -0.02
    70   6    -0.03   0.01   0.00    -0.02  -0.01  -0.03     0.02   0.03  -0.00
    71   6    -0.02   0.01  -0.01    -0.04   0.01  -0.04     0.00   0.01   0.02
    72   6    -0.02   0.01  -0.01    -0.03  -0.03   0.02     0.02   0.03  -0.01
    73   6    -0.00   0.03  -0.04    -0.06   0.01   0.01    -0.01  -0.00   0.04
    74   1    -0.02   0.01   0.00    -0.04   0.03  -0.09     0.00   0.01   0.02
    75   6    -0.01   0.03  -0.03    -0.05  -0.04   0.07     0.01   0.02   0.00
    76   1    -0.03   0.01   0.00    -0.02  -0.05   0.03     0.03   0.05  -0.03
    77   6     0.00   0.04  -0.05    -0.07  -0.02   0.07    -0.01  -0.00   0.03
    78   1     0.01   0.03  -0.05    -0.08   0.02   0.00    -0.02  -0.02   0.06
    79   1    -0.00   0.03  -0.05    -0.05  -0.06   0.12     0.01   0.02  -0.00
    80   6     0.03   0.06  -0.08    -0.11  -0.03   0.14    -0.03  -0.03   0.06
    81   1     0.02   0.05  -0.09    -0.08  -0.04   0.17    -0.01  -0.01   0.05
    82   1     0.06   0.07  -0.07    -0.17  -0.03   0.13    -0.06  -0.05   0.04
    83   1     0.03   0.06  -0.12    -0.11  -0.04   0.17    -0.03  -0.04   0.10
                     10                     11                     12
                      A                      A                      A
 Frequencies --     44.1582                50.0028                54.3612
 Red. masses --      4.9231                 5.0034                 4.7937
 Frc consts  --      0.0057                 0.0074                 0.0083
 IR Inten    --      0.2476                 0.5145                 1.5339
  Atom  AN      X      Y      Z        X      Y      Z        X      Y      Z
     1   6    -0.10  -0.01   0.03     0.10   0.05  -0.06     0.02  -0.03  -0.02
     2   6    -0.13  -0.02   0.07     0.16   0.09  -0.12     0.03  -0.04  -0.03
     3   6    -0.11  -0.00   0.08     0.14   0.07  -0.12     0.03  -0.03  -0.05
     4   6    -0.06   0.01   0.06     0.06   0.02  -0.05     0.03  -0.02  -0.06
     5   6    -0.03   0.01   0.02     0.00  -0.01   0.01     0.02  -0.01  -0.05
     6   6    -0.05   0.00   0.01     0.03   0.00  -0.00     0.02  -0.01  -0.03
     7   6    -0.02  -0.00  -0.02     0.00  -0.01   0.02     0.02   0.00  -0.03
     8   7     0.02  -0.02  -0.01     0.00  -0.00   0.02     0.02   0.01  -0.03
     9   6    -0.03  -0.00  -0.04    -0.12   0.02  -0.06     0.08  -0.02   0.06
    10   6    -0.01  -0.02  -0.02    -0.08   0.00  -0.04     0.05  -0.00   0.05
    11   6     0.05  -0.04   0.02     0.03  -0.05   0.04    -0.04   0.04  -0.00
    12   6     0.07  -0.04   0.03     0.11  -0.08   0.09    -0.08   0.07  -0.03
    13   6     0.04  -0.03   0.00     0.08  -0.06   0.05    -0.04   0.05  -0.02
    14   8    -0.05   0.00  -0.06    -0.13   0.03  -0.07     0.12  -0.03   0.06
    15   6    -0.01  -0.01  -0.03    -0.03  -0.02  -0.02     0.04   0.01   0.03
    16   6    -0.04   0.00  -0.05    -0.05  -0.01  -0.03     0.06  -0.00   0.03
    17   8    -0.04   0.01  -0.05     0.03  -0.04   0.01     0.02   0.01   0.01
    18   6    -0.03   0.00  -0.04     0.01  -0.03   0.02     0.01   0.02  -0.03
    19   7    -0.02   0.02  -0.01     0.00  -0.05   0.01     0.01   0.01  -0.03
    20   6    -0.01   0.00   0.02    -0.01  -0.01  -0.01     0.00  -0.04   0.00
    21   7    -0.02   0.03   0.01    -0.00  -0.05  -0.00     0.01   0.00  -0.02
    22   6    -0.03   0.01  -0.00    -0.00  -0.02  -0.01    -0.01  -0.03  -0.02
    23   6    -0.03   0.02   0.01    -0.02  -0.01   0.03    -0.05   0.00   0.01
    24  15    -0.02   0.02   0.01    -0.00  -0.03   0.00    -0.00  -0.02  -0.01
    25   6     0.02  -0.01   0.01    -0.00   0.02  -0.01    -0.06  -0.08   0.01
    26   6     0.02  -0.03   0.02    -0.03   0.03  -0.02    -0.10  -0.11   0.04
    27   6    -0.03  -0.03   0.06    -0.05   0.02  -0.04    -0.08  -0.10   0.06
    28   6    -0.06  -0.02   0.07    -0.06  -0.01  -0.05    -0.00  -0.05   0.05
    29   6    -0.06  -0.00   0.05    -0.03  -0.02  -0.03     0.03  -0.02   0.02
    30   6    -0.02   0.00  -0.01    -0.00  -0.01  -0.01     0.00  -0.01  -0.05
    31   6    -0.02  -0.00  -0.03    -0.01   0.05  -0.04    -0.01   0.06  -0.09
    32   6    -0.04   0.01  -0.03    -0.02   0.10  -0.06    -0.03   0.10  -0.10
    33   6    -0.05   0.02  -0.02    -0.02   0.08  -0.04    -0.04   0.08  -0.08
    34   6    -0.04   0.02  -0.01    -0.01   0.02  -0.02    -0.03   0.01  -0.04
    35   6    -0.03   0.04   0.01     0.01   0.03   0.07    -0.06   0.06   0.01
    36   6    -0.02   0.05   0.04    -0.03   0.04   0.08    -0.08   0.09   0.07
    37   6    -0.02   0.04   0.07    -0.09   0.01   0.03    -0.09   0.07   0.14
    38   6    -0.03   0.03   0.06    -0.12  -0.03  -0.02    -0.09   0.01   0.14
    39   6    -0.03   0.02   0.03    -0.08  -0.05  -0.02    -0.07  -0.02   0.08
    40   1    -0.11  -0.02   0.03     0.12   0.07  -0.07     0.02  -0.03  -0.00
    41   1    -0.16  -0.03   0.09     0.22   0.13  -0.17     0.03  -0.05  -0.02
    42   1    -0.13  -0.01   0.11     0.18   0.10  -0.16     0.04  -0.04  -0.05
    43   1    -0.04   0.02   0.06     0.04   0.01  -0.05     0.03  -0.01  -0.07
    44   1    -0.02  -0.00  -0.04    -0.01  -0.02   0.03     0.04   0.01  -0.02
    45   1    -0.00  -0.02  -0.02    -0.04   0.00   0.00     0.06   0.00  -0.01
    46   1    -0.07   0.01  -0.07    -0.20   0.05  -0.12     0.14  -0.05   0.10
    47   1    -0.02  -0.01  -0.02    -0.15   0.03  -0.07     0.08  -0.03   0.07
    48   1     0.07  -0.05   0.04     0.06  -0.06   0.07    -0.07   0.06  -0.02
    49   1     0.11  -0.06   0.06     0.20  -0.12   0.14    -0.14   0.10  -0.07
    50   1     0.05  -0.03   0.01     0.13  -0.09   0.09    -0.07   0.07  -0.04
    51   1     0.05  -0.01  -0.02     0.01   0.03   0.01    -0.09  -0.09  -0.01
    52   1     0.05  -0.04   0.01    -0.02   0.06  -0.02    -0.16  -0.14   0.05
    53   1    -0.03  -0.05   0.07    -0.07   0.03  -0.06    -0.11  -0.12   0.08
    54   1    -0.09  -0.02   0.09    -0.07  -0.02  -0.07     0.02  -0.04   0.06
    55   1    -0.08   0.01   0.06    -0.03  -0.05  -0.04     0.08   0.01   0.01
    56   1    -0.00  -0.01  -0.01     0.00  -0.04  -0.00     0.01  -0.04  -0.04
    57   1    -0.02  -0.01  -0.04    -0.01   0.07  -0.05    -0.00   0.08  -0.11
    58   1    -0.05   0.01  -0.05    -0.02   0.15  -0.08    -0.04   0.16  -0.14
    59   1    -0.06   0.02  -0.03    -0.03   0.12  -0.06    -0.06   0.11  -0.09
    60   1    -0.05   0.03  -0.00    -0.02   0.02  -0.01    -0.04   0.00  -0.02
    61   1    -0.03   0.04  -0.00     0.05   0.05   0.10    -0.05   0.08  -0.04
    62   1    -0.02   0.06   0.05    -0.01   0.08   0.11    -0.08   0.13   0.07
    63   1    -0.02   0.05   0.09    -0.12   0.02   0.03    -0.10   0.09   0.20
    64   1    -0.03   0.03   0.08    -0.17  -0.06  -0.06    -0.10  -0.01   0.20
    65   1    -0.03   0.01   0.03    -0.11  -0.08  -0.06    -0.06  -0.06   0.08
    66   1     0.01   0.02   0.00    -0.05  -0.04   0.05     0.02  -0.00  -0.05
    67  16     0.06  -0.04   0.01     0.02  -0.01   0.03     0.03   0.02  -0.02
[...]
 Vib (Bot)   48  0.358973D+00         -0.444938         -1.024508
 Vib (Bot)   49  0.353944D+00         -0.451065         -1.038616
 Vib (Bot)   50  0.350422D+00         -0.455409         -1.048618
 Vib (Bot)   51  0.346940D+00         -0.459746         -1.058604
 Vib (Bot)   52  0.346369D+00         -0.460461         -1.060251
 Vib (Bot)   53  0.339793D+00         -0.468786         -1.079420
 Vib (Bot)   54  0.327357D+00         -0.484978         -1.116703
 Vib (Bot)   55  0.311622D+00         -0.506372         -1.165965
 Vib (Bot)   56  0.304845D+00         -0.515921         -1.187952
 Vib (Bot)   57  0.298252D+00         -0.525416         -1.209815
 Vib (Bot)   58  0.286783D+00         -0.542447         -1.249031
 Vib (Bot)   59  0.263225D+00         -0.579672         -1.334744
 Vib (Bot)   60  0.255759D+00         -0.592169         -1.363519
 Vib (Bot)   61  0.247003D+00         -0.607298         -1.398355
 Vib (Bot)   62  0.246017D+00         -0.609035         -1.402356
 Vib (V=0)                            18.983769         43.711743
 Vib (V=0)    1  0.167784D+02          1.224751          2.820094
 Vib (V=0)    2  0.133349D+02          1.124988          2.590382
 Vib (V=0)    3  0.966968D+01          0.985412          2.268995
 Vib (V=0)    4  0.808489D+01          0.907674          2.089997
 Vib (V=0)    5  0.733310D+01          0.865287          1.992398
 Vib (V=0)    6  0.677018D+01          0.830600          1.912528
 Vib (V=0)    7  0.565587D+01          0.752499          1.732694
 Vib (V=0)    8  0.517456D+01          0.713873          1.643754
 Vib (V=0)    9  0.466199D+01          0.668571          1.539442
 Vib (V=0)   10  0.418052D+01          0.621230          1.430435
 Vib (V=0)   11  0.388924D+01          0.589864          1.358213
 Vib (V=0)   12  0.379675D+01          0.579412          1.334145
 Vib (V=0)   13  0.358759D+01          0.554803          1.277481
 Vib (V=0)   14  0.349939D+01          0.543993          1.252589
 Vib (V=0)   15  0.335157D+01          0.525249          1.209429
 Vib (V=0)   16  0.313033D+01          0.495590          1.141138
 Vib (V=0)   17  0.299038D+01          0.475726          1.095399
 Vib (V=0)   18  0.286906D+01          0.457740          1.053984
 Vib (V=0)   19  0.272460D+01          0.435302          1.002321
 Vib (V=0)   20  0.259864D+01          0.414746          0.954988
 Vib (V=0)   21  0.252883D+01          0.402920          0.927756
 Vib (V=0)   22  0.243965D+01          0.387327          0.891854
 Vib (V=0)   23  0.208014D+01          0.318093          0.732436
 Vib (V=0)   24  0.201890D+01          0.305114          0.702552
 Vib (V=0)   25  0.172006D+01          0.235543          0.542357
 Vib (V=0)   26  0.169166D+01          0.228312          0.525708
 Vib (V=0)   27  0.158820D+01          0.200906          0.462603
 Vib (V=0)   28  0.155880D+01          0.192792          0.443919
 Vib (V=0)   29  0.152414D+01          0.183026          0.421432
 Vib (V=0)   30  0.146294D+01          0.165227          0.380450
 Vib (V=0)   31  0.144231D+01          0.159059          0.366247
 Vib (V=0)   32  0.138484D+01          0.141399          0.325583
 Vib (V=0)   33  0.136228D+01          0.134266          0.309160
 Vib (V=0)   34  0.133474D+01          0.125398          0.288740
 Vib (V=0)   35  0.130838D+01          0.116733          0.268787
 Vib (V=0)   36  0.127543D+01          0.105657          0.243284
 Vib (V=0)   37  0.127172D+01          0.104392          0.240372
 Vib (V=0)   38  0.125620D+01          0.099058          0.228089
 Vib (V=0)   39  0.123327D+01          0.091058          0.209669
 Vib (V=0)   40  0.122587D+01          0.088443          0.203647
 Vib (V=0)   41  0.121209D+01          0.083536          0.192349
 Vib (V=0)   42  0.118529D+01          0.073823          0.169985
 Vib (V=0)   43  0.117586D+01          0.070355          0.161997
 Vib (V=0)   44  0.114102D+01          0.057295          0.131926
 Vib (V=0)   45  0.111886D+01          0.048776          0.112311
 Vib (V=0)   46  0.111812D+01          0.048490          0.111653
 Vib (V=0)   47  0.111580D+01          0.047588          0.109575
 Vib (V=0)   48  0.111552D+01          0.047476          0.109318
 Vib (V=0)   49  0.111260D+01          0.046338          0.106698
 Vib (V=0)   50  0.111057D+01          0.045546          0.104873
 Vib (V=0)   51  0.110858D+01          0.044766          0.103078
 Vib (V=0)   52  0.110825D+01          0.044639          0.102785
 Vib (V=0)   53  0.110453D+01          0.043178          0.099422
 Vib (V=0)   54  0.109763D+01          0.040456          0.093154
 Vib (V=0)   55  0.108916D+01          0.037091          0.085406
 Vib (V=0)   56  0.108560D+01          0.035671          0.082135
 Vib (V=0)   57  0.108220D+01          0.034307          0.078994
 Vib (V=0)   58  0.107641D+01          0.031976          0.073628
 Vib (V=0)   59  0.106506D+01          0.027372          0.063027
 Vib (V=0)   60  0.106162D+01          0.025968          0.059793
 Vib (V=0)   61  0.105768D+01          0.024356          0.056081
 Vib (V=0)   62  0.105725D+01          0.024176          0.055668
 Electronic      0.100000D+01          0.000000          0.000000
 Translational   0.513686D+09          8.710698         20.057123
 Rotational      0.617111D+08          7.790363         17.937974
 ***** Axes restored to original set *****
 -------------------------------------------------------------------
 Center     Atomic                   Forces (Hartrees/Bohr)
 Number     Number              X              Y              Z
 -------------------------------------------------------------------
      1        6           0.000000961   -0.000000748    0.000000669
      2        6          -0.000000034   -0.000001014    0.000000803
      3        6          -0.000000397   -0.000001152   -0.000000065
      4        6           0.000000451   -0.000000677   -0.000000621
      5        6          -0.000000968   -0.000001128    0.000000388
      6        6          -0.000001299    0.000000041    0.000002166
      7        6           0.000001584   -0.000000397    0.000001398
      8        7          -0.000174250    0.003707293    0.000845557
      9        6           0.000000056   -0.000001332   -0.000000124
     10        6           0.000000237    0.000000583   -0.000001665
     11        6          -0.000000954    0.000000098   -0.000000724
     12        6          -0.000000755    0.000000206   -0.000001049
     13        6          -0.000000380   -0.000002091    0.000000390
     14        8           0.000534939    0.003891920   -0.000062903
     15        6          -0.000000259    0.000000843   -0.000002667
     16        6           0.000000288    0.000003773    0.000001710
     17        8           0.000210767   -0.000982564    0.000028931
     18        6          -0.000215044    0.000983584   -0.000026744
     19        7          -0.000001517   -0.000002215   -0.000002446
     20        6          -0.000003872    0.000002960   -0.000001642
     21        7           0.000005316    0.000002070    0.000000254
     22        6          -0.000001736   -0.000002136   -0.000000684
     23        6           0.000003655   -0.000001419    0.000001492
     24       15           0.000001971    0.000001807   -0.000001845
     25        6           0.000001937    0.000001394    0.000000535
     26        6           0.000000663   -0.000000392   -0.000000346
     27        6          -0.000000259    0.000001404   -0.000001127
     28        6          -0.000000667    0.000000743   -0.000000544
     29        6          -0.000002250    0.000001078    0.000001231
     30        6           0.000000665    0.000001160    0.000001245
     31        6          -0.000000574    0.000000255   -0.000000147
     32        6          -0.000000427   -0.000000098   -0.000000728
     33        6           0.000001047   -0.000000074   -0.000000443
     34        6          -0.000000554    0.000000049    0.000001531
     35        6          -0.000001662   -0.000000532    0.000000039
     36        6           0.000000390    0.000001573    0.000001745
     37        6           0.000001775    0.000000259   -0.000000384
     38        6           0.000000117   -0.000000801    0.000000839
     39        6          -0.000001822    0.000000441    0.000000034
     40        1          -0.000000300   -0.000000895    0.000000100
     41        1           0.000000128   -0.000001122    0.000000550
     42        1          -0.000000204   -0.000000984    0.000000429
     43        1          -0.000000355   -0.000000727    0.000000286
     44        1          -0.000000240   -0.000000686   -0.000000257
     45        1          -0.000362230   -0.007606266   -0.000786378
     46        1          -0.000000327    0.000000901   -0.000000536
     47        1          -0.000000473    0.000000253   -0.000001101
     48        1          -0.000000224    0.000000057   -0.000001608
     49        1          -0.000000358   -0.000000324   -0.000001148
     50        1          -0.000000842    0.000000279   -0.000000715
     51        1          -0.000000477   -0.000000009   -0.000000141
     52        1           0.000000119    0.000001158   -0.000000361
     53        1          -0.000000010    0.000001054   -0.000000896
     54        1          -0.000000580    0.000000501   -0.000000404
     55        1           0.000000620    0.000000459   -0.000001644
     56        1           0.000000604    0.000000086   -0.000000771
     57        1          -0.000000134    0.000000543   -0.000000456
     58        1          -0.000000130    0.000000058   -0.000000372
     59        1          -0.000000367   -0.000000316   -0.000000078
     60        1          -0.000000126   -0.000000203   -0.000000144
     61        1           0.000000628   -0.000000161    0.000001201
     62        1           0.000000608    0.000001086    0.000000186
     63        1           0.000000458    0.000000458    0.000001232
     64        1           0.000000357    0.000000302    0.000001075
     65        1           0.000000653    0.000000648    0.000000565
     66        1           0.000001182   -0.000000537    0.000000788
     67       16           0.000002502    0.000002797   -0.000000630
     68        8          -0.000001000    0.000002454    0.000002215
     69        8           0.000001040    0.000001535   -0.000000708
     70        6           0.000000890   -0.000003267   -0.000000839
     71        6           0.000002185    0.000000761    0.000000495
     72        6           0.000001755    0.000000303    0.000000602
     73        6          -0.000000495    0.000000235   -0.000001047
     74        1          -0.000000351   -0.000001154    0.000000802
     75        6          -0.000001750   -0.000000705    0.000001220
     76        1          -0.000000691   -0.000000171   -0.000000039
     77        6          -0.000000182    0.000001260    0.000001249
     78        1           0.000000276   -0.000000546    0.000000905
     79        1           0.000000273   -0.000000390    0.000000498
     80        6           0.000000397   -0.000000648    0.000000673
     81        1           0.000000100   -0.000000154   -0.000000061
     82        1           0.000000457   -0.000001876   -0.000000206
     83        1          -0.000000522   -0.000000814    0.000001412
 -------------------------------------------------------------------
 Cartesian Forces:  Max     0.007606266 RMS     0.000603060
 FormGI is forming the generalized inverse of G from B-inverse, IUseBI=4.

 ----------------------------------------------------------------------

 Electric dipole moment (input orientation):
 (Debye = 10**-18 statcoulomb cm , SI units = C m)
                  (au)            (Debye)         (10**-30 SI)
   Tot        0.307456D+01      0.781475D+01      0.260672D+02
   x          0.266759D+01      0.678033D+01      0.226168D+02
   y         -0.393850D+00     -0.100107D+01     -0.333920D+01
   z         -0.147708D+01     -0.375437D+01     -0.125232D+02

 Dipole polarizability, Alpha (input orientation).
 (esu units = cm**3 , SI units = C**2 m**2 J**-1)
 Alpha(0;0):
               (au)            (10**-24 esu)      (10**-40 SI)
   iso        0.596454D+03      0.883853D+02      0.983419D+02
   aniso      0.166354D+03      0.246512D+02      0.274281D+02
   xx         0.649492D+03      0.962449D+02      0.107087D+03
   yx        -0.338061D+02     -0.500954D+01     -0.557387D+01
   yy         0.610261D+03      0.904314D+02      0.100618D+03
   zx        -0.133602D+02     -0.197978D+01     -0.220280D+01
   zy         0.645533D+02      0.956581D+01      0.106434D+02
   zz         0.529607D+03      0.784797D+02      0.873204D+02

 ----------------------------------------------------------------------

 Dipole orientation:
     6         -7.23841688          2.64768746         -1.86635492
     6         -9.58569317          2.18454801         -2.96268923
     6         -9.81952746          0.35049432         -4.83273543
     6         -7.70525557         -1.02858502         -5.58579599
     6         -5.36748864         -0.58045172         -4.47706198
     6         -5.12172446          1.27331250         -2.62007256
     6         -2.57185126          1.90560240         -1.44707750
     7         -0.36935500          1.77303246         -3.09574129
     6          1.70323153         -8.23151725         -3.03223221
     6          2.40222484        -10.72052277         -2.55587982
     6          1.49601064        -11.95556654         -0.41170102
     6         -0.12600016        -10.70138064          1.24251344
     6         -0.83567886         -8.21652077          0.75625007
     8          0.51924298         -3.12994694         -3.64133908
     6          0.08658868         -6.96511781         -1.37578380
     6         -0.54565273         -4.22605385         -1.83662380
     8         -2.12950066         -3.24181347         -0.30703811
     6         -1.93788015          0.30246641          0.78534962
     7         -1.31294370          0.47288721          2.91734155
     6          4.54346942         -1.45887607          4.17082405
     7         -0.64545745         -0.47366072          5.15423436
     6          2.54074895         -0.19826326          9.21433563
     6          2.88434675          3.66955446          5.17801679
    15          2.23142740          0.39017511          5.88427262
     6          7.01126752         -0.59914940          3.76833028
     6          8.72891775         -2.12890377          2.49671454
     6          7.98599070         -4.49854310          1.61677133
     6          5.52483022         -5.34911186          1.99947244
     6          3.80054968         -3.83143213          3.27687293
     6          4.86876851         -0.90843913         10.24182844
     6          5.09505682         -1.25270352         12.83746721
     6          3.00710567         -0.89627030         14.40068738
     6          0.68486087         -0.19498392         13.37623648
     6          0.44361910          0.16146283         10.78394507
     6          3.02691565          4.41378312          2.63794999
     6          3.27695304          6.95662329          2.03113870
     6          3.42726462          8.75600267          3.94931747
     6          3.31552863          8.01955543          6.47365696
     6          3.02594071          5.48030571          7.09552134
     1         -7.05176292          4.10745631         -0.43211156
     1        -11.22118026          3.27260404         -2.37010669
     1        -11.64172933          0.00012028         -5.70934548
     1         -7.87396663         -2.45138899         -7.05451410
     1         -2.65390840          3.82949271         -0.68826891
     1          0.12209905         -0.08956444         -3.63295673
     1          2.42013240         -7.23198478         -4.67178579
     1          3.66347894        -11.69557065         -3.84814584
     1          2.05285880        -13.89398036         -0.03101333
     1         -0.83453052        -11.65978207          2.91295315
     1         -2.08675226         -7.21136410          2.03212496
     1          7.58643584          1.25873963          4.42546280
     1         10.64262971         -1.46457765          2.17766755
     1          9.33051654         -5.67966590          0.61376551
     1          4.93485313         -7.18220806          1.29230996
     1          1.86758530         -4.46367202          3.54950487
     1          6.49512620         -1.20919173          9.02769225
     1          6.89954498         -1.80947222         13.63616993
     1          3.18874888         -1.17227926         16.42525553
     1         -0.94186789          0.07281938         14.59550303
     1         -1.36104488          0.69545957          9.97016992
     1          2.93844683          3.02519145          1.12721310
     1          3.33374213          7.52187973          0.06113652
     1          3.63211945         10.74086513          3.47289367
     1          3.44256418          9.42263149          7.96397210
     1          2.91307927          4.91707342          9.06533817
     1         -3.72053680         -1.63545775         -5.09123579
    16          0.16803446          4.01945568         -5.16856731
     8         -0.20171404          6.43182822         -3.87473699
     8          2.60194678          3.40731026         -6.30420869
     6         -2.18877575          3.77222321         -7.54644743
     6         -4.37936243          5.21452112         -7.35295168
     6         -1.92654880          1.94715475         -9.42176522
     6         -6.33866614          4.79195732         -9.04433269
     1         -4.55205411          6.62787929         -5.87962603
     6         -3.90518407          1.55164528        -11.10137296
     1         -0.20527080          0.84065523         -9.55577501
     6         -6.14544913          2.93923700        -10.91757391
     1         -8.06094179          5.89788915         -8.88655782
     1         -3.71307821          0.12512356        -12.56513293
     6         -8.34396916          2.40451119        -12.64329451
     1         -7.74341929          1.42370447        -14.35993208
     1         -9.72664183          1.19989074        -11.67760264
     1         -9.31560161          4.14589494        -13.18971549

 Electric dipole moment (dipole orientation):
 (Debye = 10**-18 statcoulomb cm , SI units = C m)
                  (au)            (Debye)         (10**-30 SI)
   Tot        0.307456D+01      0.781475D+01      0.260672D+02
   x          0.000000D+00      0.000000D+00      0.000000D+00
   y          0.000000D+00      0.000000D+00      0.000000D+00
   z          0.307456D+01      0.781475D+01      0.260672D+02

 Dipole polarizability, Alpha (dipole orientation).
 (esu units = cm**3 , SI units = C**2 m**2 J**-1)
 Alpha(0;0):
               (au)            (10**-24 esu)      (10**-40 SI)
   iso        0.596454D+03      0.883853D+02      0.983419D+02
   aniso      0.166354D+03      0.246512D+02      0.274281D+02
   xx         0.553543D+03      0.820267D+02      0.912670D+02
   yx        -0.485274D+02     -0.719102D+01     -0.800109D+01
   yy         0.588041D+03      0.871387D+02      0.969549D+02
   zx         0.338697D+02      0.501897D+01      0.558436D+01
   zy         0.587321D+02      0.870320D+01      0.968361D+01
   zz         0.647777D+03      0.959906D+02      0.106804D+03

 ----------------------------------------------------------------------

 This type of calculation cannot be archived.


 THE LENGTH OF A MEETING IS PROPORTIONAL TO THE
 SQUARE OF THE PARTICIPANTS.
 Job cpu time:       0 days  0 hours  0 minutes  2.5 seconds.
 Elapsed time:       0 days  0 hours  0 minutes  0.7 seconds.
 File lengths (MBytes):  RWF=     11 Int=      0 D2E=      0 Chk=     15 Scr=      1
 Normal termination of Gaussian 16 at Sat Apr  4 18:50:35 2020.
