 Entering Gaussian System, Link 0=g16
 Initial command:
 /apps/cent7/gaussian/g16-A.03/g16-haswell/g16/l1.exe "/scratch/brown/finej/0051_imine_mechanism/ts_631gd/acyclic_complete/new_logs_2/Gau-244986.inp" -scrdir="/scratch/brown/finej/0051_imine_mechanism/ts_631gd/acyclic_complete/new_logs_2/"
 Entering Link 1 = /apps/cent7/gaussian/g16-A.03/g16-haswell/g16/l1.exe PID=    244987.
  
 Copyright (c) 1988,1990,1992,1993,1995,1998,2003,2009,2016,
            Gaussian, Inc.  All Rights Reserved.
  
 This is part of the Gaussian(R) 16 program.  It is based on
 the Gaussian(R) 09 system (copyright 2009, Gaussian, Inc.),
 the Gaussian(R) 03 system (copyright 2003, Gaussian, Inc.),
 the Gaussian(R) 98 system (copyright 1998, Gaussian, Inc.),
 the Gaussian(R) 94 system (copyright 1995, Gaussian, Inc.),
 the Gaussian 92(TM) system (copyright 1992, Gaussian, Inc.),
 the Gaussian 90(TM) system (copyright 1990, Gaussian, Inc.),
 the Gaussian 88(TM) system (copyright 1988, Gaussian, Inc.),
 the Gaussian 86(TM) system (copyright 1986, Carnegie Mellon
 University), and the Gaussian 82(TM) system (copyright 1983,
 Carnegie Mellon University). Gaussian is a federally registered
 trademark of Gaussian, Inc.
  
 This software contains proprietary and confidential information,
 including trade secrets, belonging to Gaussian, Inc.
  
 This software is provided under written license and may be
 used, copied, transmitted, or stored only in accord with that
 written license.
  
 The following legend is applicable only to US Government
 contracts under FAR:
  
                    RESTRICTED RIGHTS LEGEND
  
 Use, reproduction and disclosure by the US Government is
 subject to restrictions as set forth in subparagraphs (a)
 and (c) of the Commercial Computer Software - Restricted
 Rights clause in FAR 52.227-19.
  
 Gaussian, Inc.
 340 Quinnipiac St., Bldg. 40, Wallingford CT 06492
  
  
 ---------------------------------------------------------------
 Warning -- This program may not be used in any manner that
 competes with the business of Gaussian, Inc. or will provide
 assistance to any competitor of Gaussian, Inc.  The licensee
 of this program is prohibited from giving any competitor of
 Gaussian, Inc. access to this program.  By using this program,
 the user acknowledges that Gaussian, Inc. is engaged in the
 business of creating and licensing software in the field of
 computational chemistry and represents and warrants to the
 licensee that it is not a competitor of Gaussian, Inc. and that
 it will not use this program in any manner prohibited above.
 ---------------------------------------------------------------
  

 Cite this work as:
 Gaussian 16, Revision A.03,
 M. J. Frisch, G. W. Trucks, H. B. Schlegel, G. E. Scuseria, 
 M. A. Robb, J. R. Cheeseman, G. Scalmani, V. Barone, 
 G. A. Petersson, H. Nakatsuji, X. Li, M. Caricato, A. V. Marenich, 
 J. Bloino, B. G. Janesko, R. Gomperts, B. Mennucci, H. P. Hratchian, 
 J. V. Ortiz, A. F. Izmaylov, J. L. Sonnenberg, D. Williams-Young, 
 F. Ding, F. Lipparini, F. Egidi, J. Goings, B. Peng, A. Petrone, 
 T. Henderson, D. Ranasinghe, V. G. Zakrzewski, J. Gao, N. Rega, 
 G. Zheng, W. Liang, M. Hada, M. Ehara, K. Toyota, R. Fukuda, 
 J. Hasegawa, M. Ishida, T. Nakajima, Y. Honda, O. Kitao, H. Nakai, 
 T. Vreven, K. Throssell, J. A. Montgomery, Jr., J. E. Peralta, 
 F. Ogliaro, M. J. Bearpark, J. J. Heyd, E. N. Brothers, K. N. Kudin, 
 V. N. Staroverov, T. A. Keith, R. Kobayashi, J. Normand, 
 K. Raghavachari, A. P. Rendell, J. C. Burant, S. S. Iyengar, 
 J. Tomasi, M. Cossi, J. M. Millam, M. Klene, C. Adamo, R. Cammi, 
 J. W. Ochterski, R. L. Martin, K. Morokuma, O. Farkas, 
 J. B. Foresman, and D. J. Fox, Gaussian, Inc., Wallingford CT, 2016.
 
 ******************************************
 Gaussian 16:  ES64L-G16RevA.03 25-Dec-2016
                 4-Apr-2020 
 ******************************************
 %nprocshared=4
 Will use up to    4 processors via shared memory.
 %mem=1GB
 %oldchk=chk/acyclic_1.chk
 Copying data from "chk/acyclic_1.chk" to current chk file "/scratch/brown/finej/0051_imine_mechanism/ts_631gd/acyclic_complete/new_logs_2/Gau-244987.chk"
 IOpt=  2 FromEx=T IUOpen= 4 IOptOp= 5 NList=   0 IFRang= 0 IUIn= 4 IUOut= 2.
 ----------------------------------------------------------------------
 # freq=readfc wb97xd/6-31g(d) scrf=solvent=dichloromethane geom=check 
 temperature=263.15
 ----------------------------------------------------------------------
 1/29=2,38=1,112=263150,172=1/1;
 2/12=2,40=1/2;
 7/8=1,25=11/16;
 99/5=2/99;
 ---------------------
 Acyclic sulfonylimine
 ---------------------
 Structure from the checkpoint file:  "/scratch/brown/finej/0051_imine_mechanism/ts_631gd/acyclic_complete/new_logs_2/Gau-244987.chk"
 Charge =  0 Multiplicity = 1
 Redundant internal coordinates found in file.  (old form).
 C,0,-3.8938879559,-0.0566846331,1.0900878271
 C,0,-5.0597198405,-0.7885907514,0.8931475055
 C,0,-5.2091942266,-1.5524756847,-0.261691895
 C,0,-4.1954571271,-1.5861872412,-1.2218619074
 C,0,-3.0316392839,-0.8569243459,-1.028999688
 C,0,5.0524739962,-2.4561795458,0.1996279791
 C,0,2.3799576303,0.034066488,1.2765072751
 C,0,3.3866530277,-0.9235698451,1.3193464373
 C,0,3.9417054096,-1.4403390481,0.1451522948
 C,0,3.4634674882,-0.9752946979,-1.0856095902
 C,0,2.4609155618,-0.0176413124,-1.1491945369
 C,0,1.9272087566,0.4789805952,0.0384965447
 O,0,0.462837472,2.2752887859,1.2931819816
 O,0,0.8565987471,2.5650715636,-1.1751469862
 S,0,0.6311615279,1.6833954046,-0.0347628965
 C,0,-2.8746068784,-0.087044398,0.1318808627
 C,0,-1.662735262,0.6920511282,0.3753676086
 N,0,-0.6863310142,0.7104444518,-0.4574190761
 H,0,-3.7709726841,0.5415556879,1.9888558255
 H,0,-5.8486928619,-0.7632052727,1.6376044608
 H,0,-6.1187343977,-2.124613874,-0.4170985894
 H,0,-4.3179816278,-2.1828506196,-2.1200500489
 H,0,-2.2361521345,-0.8731824908,-1.7668199857
 H,0,4.9950676505,-3.1528045124,-0.6416761858
 H,0,6.0279091827,-1.9584049106,0.1491194152
 H,0,5.0219236135,-3.0313482724,1.1290909673
 H,0,1.9536303147,0.4351084127,2.1894901229
 H,0,3.7468006656,-1.2740744071,2.2823299024
 H,0,3.8842558277,-1.3679981336,-2.0068329392
 H,0,2.1004827031,0.3436411434,-2.1064906481
 H,0,-1.6177393143,1.2615998349,1.3100068454
 Recover connectivity data from disk.
                           ----------------------------
                           !    Current Parameters    !
                           ! (Angstroms and Degrees)  !
 --------------------------                            --------------------------
 ! Name  Definition              Value          Derivative Info.                !
 --------------------------------------------------------------------------------
 ! R1    R(1,2)                  1.3906         estimate D2E/DX2                !
 ! R2    R(1,16)                 1.3993         estimate D2E/DX2                !
 ! R3    R(1,19)                 1.0866         estimate D2E/DX2                !
 ! R4    R(2,3)                  1.3927         estimate D2E/DX2                !
 ! R5    R(2,20)                 1.0851         estimate D2E/DX2                !
 ! R6    R(3,4)                  1.3967         estimate D2E/DX2                !
 ! R7    R(3,21)                 1.0857         estimate D2E/DX2                !
 ! R8    R(4,5)                  1.3869         estimate D2E/DX2                !
 ! R9    R(4,22)                 1.0852         estimate D2E/DX2                !
 ! R10   R(5,16)                 1.4018         estimate D2E/DX2                !
 ! R11   R(5,23)                 1.0851         estimate D2E/DX2                !
 ! R12   R(6,9)                  1.5062         estimate D2E/DX2                !
 ! R13   R(6,24)                 1.0938         estimate D2E/DX2                !
 ! R14   R(6,25)                 1.0963         estimate D2E/DX2                !
 ! R15   R(6,26)                 1.0935         estimate D2E/DX2                !
 ! R16   R(7,8)                  1.3901         estimate D2E/DX2                !
 ! R17   R(7,12)                 1.3913         estimate D2E/DX2                !
 ! R18   R(7,27)                 1.0845         estimate D2E/DX2                !
 ! R19   R(8,9)                  1.3978         estimate D2E/DX2                !
 ! R20   R(8,28)                 1.0862         estimate D2E/DX2                !
 ! R21   R(9,10)                 1.3999         estimate D2E/DX2                !
 ! R22   R(10,11)                1.3879         estimate D2E/DX2                !
 ! R23   R(10,29)                1.0862         estimate D2E/DX2                !
 ! R24   R(11,12)                1.3936         estimate D2E/DX2                !
 ! R25   R(11,30)                1.0848         estimate D2E/DX2                !
 ! R26   R(12,15)                1.7708         estimate D2E/DX2                !
 ! R27   R(13,15)                1.4636         estimate D2E/DX2                !
 ! R28   R(14,15)                1.459          estimate D2E/DX2                !
 ! R29   R(15,18)                1.6915         estimate D2E/DX2                !
 ! R30   R(16,17)                1.4611         estimate D2E/DX2                !
 ! R31   R(17,18)                1.2834         estimate D2E/DX2                !
 ! R32   R(17,31)                1.0954         estimate D2E/DX2                !
 ! A1    A(2,1,16)             120.1527         estimate D2E/DX2                !
 ! A2    A(2,1,19)             120.1158         estimate D2E/DX2                !
 ! A3    A(16,1,19)            119.7315         estimate D2E/DX2                !
 ! A4    A(1,2,3)              119.7442         estimate D2E/DX2                !
 ! A5    A(1,2,20)             120.009          estimate D2E/DX2                !
 ! A6    A(3,2,20)             120.2468         estimate D2E/DX2                !
 ! A7    A(2,3,4)              120.3581         estimate D2E/DX2                !
 ! A8    A(2,3,21)             119.8451         estimate D2E/DX2                !
 ! A9    A(4,3,21)             119.7967         estimate D2E/DX2                !
 ! A10   A(3,4,5)              120.0516         estimate D2E/DX2                !
 ! A11   A(3,4,22)             120.0195         estimate D2E/DX2                !
 ! A12   A(5,4,22)             119.9289         estimate D2E/DX2                !
 ! A13   A(4,5,16)             119.8646         estimate D2E/DX2                !
 ! A14   A(4,5,23)             120.8471         estimate D2E/DX2                !
 ! A15   A(16,5,23)            119.2883         estimate D2E/DX2                !
 ! A16   A(9,6,24)             111.2855         estimate D2E/DX2                !
 ! A17   A(9,6,25)             110.3815         estimate D2E/DX2                !
 ! A18   A(9,6,26)             111.4011         estimate D2E/DX2                !
 ! A19   A(24,6,25)            107.4846         estimate D2E/DX2                !
 ! A20   A(24,6,26)            108.5015         estimate D2E/DX2                !
 ! A21   A(25,6,26)            107.6297         estimate D2E/DX2                !
 ! A22   A(8,7,12)             118.9077         estimate D2E/DX2                !
 ! A23   A(8,7,27)             120.8973         estimate D2E/DX2                !
 ! A24   A(12,7,27)            120.1944         estimate D2E/DX2                !
 ! A25   A(7,8,9)              121.0891         estimate D2E/DX2                !
 ! A26   A(7,8,28)             119.3228         estimate D2E/DX2                !
 ! A27   A(9,8,28)             119.5881         estimate D2E/DX2                !
 ! A28   A(6,9,8)              120.7831         estimate D2E/DX2                !
 ! A29   A(6,9,10)             120.5153         estimate D2E/DX2                !
 ! A30   A(8,9,10)             118.6894         estimate D2E/DX2                !
 ! A31   A(9,10,11)            121.0821         estimate D2E/DX2                !
 ! A32   A(9,10,29)            119.5494         estimate D2E/DX2                !
 ! A33   A(11,10,29)           119.3684         estimate D2E/DX2                !
 ! A34   A(10,11,12)           118.9135         estimate D2E/DX2                !
 ! A35   A(10,11,30)           120.6787         estimate D2E/DX2                !
 ! A36   A(12,11,30)           120.4071         estimate D2E/DX2                !
 ! A37   A(7,12,11)            121.318          estimate D2E/DX2                !
 ! A38   A(7,12,15)            119.505          estimate D2E/DX2                !
 ! A39   A(11,12,15)           119.1712         estimate D2E/DX2                !
 ! A40   A(12,15,13)           108.7657         estimate D2E/DX2                !
 ! A41   A(12,15,14)           109.285          estimate D2E/DX2                !
 ! A42   A(12,15,18)           100.9053         estimate D2E/DX2                !
 ! A43   A(13,15,14)           118.8531         estimate D2E/DX2                !
 ! A44   A(13,15,18)           111.7007         estimate D2E/DX2                !
 ! A45   A(14,15,18)           105.8219         estimate D2E/DX2                !
 ! A46   A(1,16,5)             119.8288         estimate D2E/DX2                !
 ! A47   A(1,16,17)            118.5861         estimate D2E/DX2                !
 ! A48   A(5,16,17)            121.585          estimate D2E/DX2                !
 ! A49   A(16,17,18)           122.039          estimate D2E/DX2                !
 ! A50   A(16,17,31)           116.9676         estimate D2E/DX2                !
 ! A51   A(18,17,31)           120.9924         estimate D2E/DX2                !
 ! A52   A(15,18,17)           116.0192         estimate D2E/DX2                !
 ! D1    D(16,1,2,3)             0.0096         estimate D2E/DX2                !
 ! D2    D(16,1,2,20)         -179.9881         estimate D2E/DX2                !
 ! D3    D(19,1,2,3)           179.9874         estimate D2E/DX2                !
 ! D4    D(19,1,2,20)           -0.0102         estimate D2E/DX2                !
 ! D5    D(2,1,16,5)             0.0486         estimate D2E/DX2                !
 ! D6    D(2,1,16,17)         -179.8355         estimate D2E/DX2                !
 ! D7    D(19,1,16,5)         -179.9293         estimate D2E/DX2                !
 ! D8    D(19,1,16,17)           0.1866         estimate D2E/DX2                !
 ! D9    D(1,2,3,4)             -0.0371         estimate D2E/DX2                !
 ! D10   D(1,2,3,21)           179.9959         estimate D2E/DX2                !
 ! D11   D(20,2,3,4)           179.9605         estimate D2E/DX2                !
 ! D12   D(20,2,3,21)           -0.0065         estimate D2E/DX2                !
 ! D13   D(2,3,4,5)              0.0059         estimate D2E/DX2                !
 ! D14   D(2,3,4,22)          -179.9633         estimate D2E/DX2                !
 ! D15   D(21,3,4,5)           179.973          estimate D2E/DX2                !
 ! D16   D(21,3,4,22)            0.0038         estimate D2E/DX2                !
 ! D17   D(3,4,5,16)             0.0524         estimate D2E/DX2                !
 ! D18   D(3,4,5,23)          -179.9554         estimate D2E/DX2                !
 ! D19   D(22,4,5,16)         -179.9783         estimate D2E/DX2                !
 ! D20   D(22,4,5,23)            0.0139         estimate D2E/DX2                !
 ! D21   D(4,5,16,1)            -0.0796         estimate D2E/DX2                !
 ! D22   D(4,5,16,17)          179.8009         estimate D2E/DX2                !
 ! D23   D(23,5,16,1)          179.9281         estimate D2E/DX2                !
 ! D24   D(23,5,16,17)          -0.1914         estimate D2E/DX2                !
 ! D25   D(24,6,9,8)           147.4747         estimate D2E/DX2                !
 ! D26   D(24,6,9,10)          -33.818          estimate D2E/DX2                !
 ! D27   D(25,6,9,8)           -93.2684         estimate D2E/DX2                !
 ! D28   D(25,6,9,10)           85.4389         estimate D2E/DX2                !
 ! D29   D(26,6,9,8)            26.245          estimate D2E/DX2                !
 ! D30   D(26,6,9,10)         -155.0477         estimate D2E/DX2                !
 ! D31   D(12,7,8,9)            -0.0954         estimate D2E/DX2                !
 ! D32   D(12,7,8,28)          179.8616         estimate D2E/DX2                !
 ! D33   D(27,7,8,9)          -179.8116         estimate D2E/DX2                !
 ! D34   D(27,7,8,28)            0.1455         estimate D2E/DX2                !
 ! D35   D(8,7,12,11)            0.1066         estimate D2E/DX2                !
 ! D36   D(8,7,12,15)          179.2272         estimate D2E/DX2                !
 ! D37   D(27,7,12,11)         179.8248         estimate D2E/DX2                !
 ! D38   D(27,7,12,15)          -1.0546         estimate D2E/DX2                !
 ! D39   D(7,8,9,6)            178.6887         estimate D2E/DX2                !
 ! D40   D(7,8,9,10)            -0.0419         estimate D2E/DX2                !
 ! D41   D(28,8,9,6)            -1.2683         estimate D2E/DX2                !
 ! D42   D(28,8,9,10)         -179.9988         estimate D2E/DX2                !
 ! D43   D(6,9,10,11)         -178.5604         estimate D2E/DX2                !
 ! D44   D(6,9,10,29)            1.3192         estimate D2E/DX2                !
 ! D45   D(8,9,10,11)            0.1737         estimate D2E/DX2                !
 ! D46   D(8,9,10,29)         -179.9467         estimate D2E/DX2                !
 ! D47   D(9,10,11,12)          -0.1636         estimate D2E/DX2                !
 ! D48   D(9,10,11,30)         179.5296         estimate D2E/DX2                !
 ! D49   D(29,10,11,12)        179.9567         estimate D2E/DX2                !
 ! D50   D(29,10,11,30)         -0.3501         estimate D2E/DX2                !
 ! D51   D(10,11,12,7)           0.0213         estimate D2E/DX2                !
 ! D52   D(10,11,12,15)       -179.1022         estimate D2E/DX2                !
 ! D53   D(30,11,12,7)        -179.6728         estimate D2E/DX2                !
 ! D54   D(30,11,12,15)          1.2037         estimate D2E/DX2                !
 ! D55   D(7,12,15,13)          14.1462         estimate D2E/DX2                !
 ! D56   D(7,12,15,14)         145.3576         estimate D2E/DX2                !
 ! D57   D(7,12,15,18)        -103.445          estimate D2E/DX2                !
 ! D58   D(11,12,15,13)       -166.7142         estimate D2E/DX2                !
 ! D59   D(11,12,15,14)        -35.5028         estimate D2E/DX2                !
 ! D60   D(11,12,15,18)         75.6946         estimate D2E/DX2                !
 ! D61   D(12,15,18,17)        119.7016         estimate D2E/DX2                !
 ! D62   D(13,15,18,17)          4.2798         estimate D2E/DX2                !
 ! D63   D(14,15,18,17)       -126.4584         estimate D2E/DX2                !
 ! D64   D(1,16,17,18)         179.8883         estimate D2E/DX2                !
 ! D65   D(1,16,17,31)           0.2332         estimate D2E/DX2                !
 ! D66   D(5,16,17,18)           0.0063         estimate D2E/DX2                !
 ! D67   D(5,16,17,31)        -179.6488         estimate D2E/DX2                !
 ! D68   D(16,17,18,15)        179.0413         estimate D2E/DX2                !
 ! D69   D(31,17,18,15)         -1.3173         estimate D2E/DX2                !
 --------------------------------------------------------------------------------
                          Input orientation:                          
 ---------------------------------------------------------------------
 Center     Atomic      Atomic             Coordinates (Angstroms)
 Number     Number       Type             X           Y           Z
 ---------------------------------------------------------------------
      1          6           0       -3.893888   -0.056685    1.090088
      2          6           0       -5.059720   -0.788591    0.893148
      3          6           0       -5.209194   -1.552476   -0.261692
      4          6           0       -4.195457   -1.586187   -1.221862
      5          6           0       -3.031639   -0.856924   -1.029000
      6          6           0        5.052474   -2.456180    0.199628
      7          6           0        2.379958    0.034066    1.276507
      8          6           0        3.386653   -0.923570    1.319346
      9          6           0        3.941705   -1.440339    0.145152
     10          6           0        3.463467   -0.975295   -1.085610
     11          6           0        2.460916   -0.017641   -1.149195
     12          6           0        1.927209    0.478981    0.038497
     13          8           0        0.462837    2.275289    1.293182
     14          8           0        0.856599    2.565072   -1.175147
     15         16           0        0.631162    1.683395   -0.034763
     16          6           0       -2.874607   -0.087044    0.131881
     17          6           0       -1.662735    0.692051    0.375368
     18          7           0       -0.686331    0.710444   -0.457419
     19          1           0       -3.770973    0.541556    1.988856
     20          1           0       -5.848693   -0.763205    1.637604
     21          1           0       -6.118734   -2.124614   -0.417099
     22          1           0       -4.317982   -2.182851   -2.120050
     23          1           0       -2.236152   -0.873182   -1.766820
     24          1           0        4.995068   -3.152805   -0.641676
     25          1           0        6.027909   -1.958405    0.149119
     26          1           0        5.021924   -3.031348    1.129091
     27          1           0        1.953630    0.435108    2.189490
     28          1           0        3.746801   -1.274074    2.282330
     29          1           0        3.884256   -1.367998   -2.006833
     30          1           0        2.100483    0.343641   -2.106491
     31          1           0       -1.617739    1.261600    1.310007
 ---------------------------------------------------------------------
                    Distance matrix (angstroms):
                    1          2          3          4          5
     1  C    0.000000
     2  C    1.390552   0.000000
     3  C    2.407225   1.392665   0.000000
     4  C    2.788446   2.419995   1.396684   0.000000
     5  C    2.423714   2.795072   2.411286   1.386900   0.000000
     6  C    9.305261  10.272209  10.311708   9.396901   8.331868
     7  C    6.277271   7.494834   7.904328   7.218251   5.949337
     8  C    7.335552   8.458196   8.762636   8.024039   6.834738
     9  C    8.012735   9.055933   9.160626   8.252479   7.095530
    10  C    7.727107   8.751860   8.730810   7.684457   6.496432
    11  C    6.737910   7.831059   7.872354   6.839073   5.557608
    12  C    5.939524   7.152226   7.425980   6.583347   5.245414
    13  O    4.945746   6.328193   7.017219   6.552568   5.235901
    14  O    5.879797   7.108285   7.387993   6.538991   5.181680
    15  S    4.976871   6.273585   6.680727   5.949422   4.567039
    16  C    1.399291   2.417936   2.784365   2.413440   1.401791
    17  C    2.459568   3.741644   4.245129   3.762472   2.499094
    18  N    3.643033   4.816396   5.061167   4.262963   2.878163
    19  H    1.086639   2.151914   3.393879   3.875072   3.407317
    20  H    2.149467   1.085053   2.153888   3.403974   3.880123
    21  H    3.390853   2.150166   1.085706   2.153263   3.392877
    22  H    3.873683   3.401984   2.155256   1.085247   2.145495
    23  H    3.402452   3.880092   3.400857   2.155048   1.085100
    24  H    9.570710  10.442411  10.335976   9.341127   8.357578
    25  H   10.146133  11.173968  11.251935  10.321597   9.201991
    26  H    9.399034  10.330787  10.430585   9.621620   8.616574
    27  H    5.970261   7.236368   7.827186   7.316709   6.072968
    28  H    7.828384   8.928624   9.314473   8.686555   7.555539
    29  H    8.474077   9.420207   9.261230   8.120686   7.003353
    30  H    6.805208   7.845271   7.773668   6.644220   5.379686
    31  H    2.639525   4.027938   4.825744   4.600530   3.458064
                    6          7          8          9         10
     6  C    0.000000
     7  C    3.808325   0.000000
     8  C    2.525395   1.390086   0.000000
     9  C    1.506223   2.427528   1.397807   0.000000
    10  C    2.523846   2.787902   2.406738   1.399912   0.000000
    11  C    3.805518   2.427603   2.787721   2.427373   1.387895
    12  C    4.290502   1.391259   2.395350   2.784486   2.395542
    13  O    6.681872   2.949357   4.333830   5.217891   5.022820
    14  O    6.686429   3.838908   4.979387   5.225360   4.397496
    15  S    6.061272   2.738248   4.027731   4.555193   4.024285
    16  C    8.273814   5.379153   6.427536   6.949367   6.514788
    17  C    7.418644   4.193848   5.384947   6.000820   5.585020
    18  N    6.587344   3.586937   4.734564   5.138841   4.522960
    19  H    9.488992   6.212804   7.336651   8.173895   8.005642
    20  H   11.125169   8.275066   9.242219   9.926622   9.704494
    21  H   11.193131   8.930620   9.737050  10.099347   9.674008
    22  H    9.657176   7.830307   8.530922   8.596796   7.942242
    23  H    7.713421   5.602982   6.414273   6.491782   5.741092
    24  H    1.093789   4.546908   3.376699   2.158983   2.698967
    25  H    1.096268   4.306797   3.068640   2.149571   3.011216
    26  H    1.093460   4.049504   2.674516   2.160166   3.400153
    27  H    4.682086   1.084494   2.157941   3.413072   3.872354
    28  H    2.727600   2.142702   1.086231   2.152478   3.393017
    29  H    2.723480   3.874148   3.392432   2.153967   1.086246
    30  H    4.676690   3.408609   3.872521   3.412123   2.153954
    31  H    7.716642   4.182050   5.460677   6.290054   6.046597
                   11         12         13         14         15
    11  C    0.000000
    12  C    1.393588   0.000000
    13  O    3.900647   2.635402   0.000000
    14  O    3.040545   2.640248   2.516281   0.000000
    15  S    2.735596   1.770797   1.463594   1.458990   0.000000
    16  C    5.487602   4.835963   4.250620   4.760666   3.930985
    17  C    4.453364   3.612005   2.804832   3.501335   2.532377
    18  N    3.303608   2.670224   2.614179   2.517024   1.691466
    19  H    6.999749   6.023046   4.627628   5.959861   4.977712
    20  H    8.796119   8.035224   7.013308   7.996870   7.125390
    21  H    8.864857   8.468971   8.099462   8.439376   7.759395
    22  H    7.182210   7.123698   7.374374   7.086035   6.617424
    23  H    4.814131   4.735091   5.153739   4.662272   4.213977
    24  H    4.063096   4.802526   7.331370   7.078533   6.542236
    25  H    4.263288   4.771669   7.085412   6.996997   6.513172
    26  H    4.564184   4.805108   6.998042   7.347065   6.546920
    27  H    3.407218   2.151603   2.532212   4.130497   2.873055
    28  H    3.873949   3.379187   4.935667   5.920005   4.880856
    29  H    2.141239   3.380050   5.989135   5.032638   4.876749
    30  H    1.084828   2.156226   4.239212   2.710978   2.871568
    31  H    4.931486   3.846542   2.314443   3.741307   2.654029
                   16         17         18         19         20
    16  C    0.000000
    17  C    1.461133   0.000000
    18  N    2.402460   1.283447   0.000000
    19  H    2.155682   2.659071   3.940533   0.000000
    20  H    3.401409   4.607956   5.762877   2.478447   0.000000
    21  H    3.870069   5.330810   6.127821   4.290578   2.479548
    22  H    3.398077   4.641390   4.931976   4.960314   4.298655
    23  H    2.151907   2.714356   2.573781   4.296773   4.965144
    24  H    8.481100   7.755233   6.872913   9.869724  11.335451
    25  H    9.097092   8.137697   7.250632  10.278741  12.029038
    26  H    8.486374   7.688723   7.007296   9.529946  11.116356
    27  H    5.274303   4.054030   3.748511   5.729107   7.913077
    28  H    7.062330   6.063434   5.576486   7.739480   9.630688
    29  H    7.203969   6.378698   5.254605   8.843893  10.410475
    30  H    5.472414   4.521374   3.258882   7.161356   8.856227
    31  H    2.187816   1.095427   2.072459   2.369750   4.701928
                   21         22         23         24         25
    21  H    0.000000
    22  H    2.479142   0.000000
    23  H    4.296775   2.484757   0.000000
    24  H   11.163521   9.479414   7.665061   0.000000
    25  H   12.160969  10.594195   8.552382   1.765987   0.000000
    26  H   11.283932   9.925255   8.107012   1.775131   1.767359
    27  H    8.860562   8.047295   5.909170   5.489896   5.147015
    28  H   10.263484   9.232959   7.235472   3.692913   3.197241
    29  H   10.156748   8.243391   6.145067   2.506609   3.097089
    30  H    8.746534   6.897828   4.516906   4.769637   5.080539
    31  H    5.891374   5.560651   3.795602   8.186895   8.376875
                   26         27         28         29         30
    26  H    0.000000
    27  H    4.749231   0.000000
    28  H    2.458436   2.478989   0.000000
    29  H    3.727605   4.958592   4.292393   0.000000
    30  H    5.513108   4.299463   4.958741   2.474164   0.000000
    31  H    7.908682   3.769782   6.012765   6.941769   5.132278
                   31
    31  H    0.000000
 Stoichiometry    C14H13NO2S
 Framework group  C1[X(C14H13NO2S)]
 Deg. of freedom    87
 Full point group                 C1      NOp   1
 Largest Abelian subgroup         C1      NOp   1
 Largest concise Abelian subgroup C1      NOp   1
                         Standard orientation:                         
 ---------------------------------------------------------------------
 Center     Atomic      Atomic             Coordinates (Angstroms)
 Number     Number       Type             X           Y           Z
 ---------------------------------------------------------------------
      1          6           0       -3.880228    0.034993    1.110587
      2          6           0       -5.044956   -0.715853    0.995360
      3          6           0       -5.203634   -1.583982   -0.081993
      4          6           0       -4.200223   -1.703210   -1.046190
      5          6           0       -3.037542   -0.955381   -0.934756
      6          6           0        5.066234   -2.407234    0.346244
      7          6           0        2.394819    0.163294    1.217599
      8          6           0        3.406043   -0.782928    1.337715
      9          6           0        3.950567   -1.404480    0.210314
     10          6           0        3.457021   -1.057098   -1.052813
     11          6           0        2.449715   -0.112768   -1.193632
     12          6           0        1.926768    0.490045   -0.051166
     13          8           0        0.468337    2.390087    1.047997
     14          8           0        0.834079    2.451122   -1.440813
     15         16           0        0.624817    1.678209   -0.221196
     16          6           0       -2.871266   -0.080698    0.147972
     17          6           0       -1.660202    0.721600    0.304655
     18          7           0       -0.692965    0.665936   -0.537124
     19          1           0       -3.750166    0.714368    1.948630
     20          1           0       -5.825919   -0.624169    1.743042
     21          1           0       -6.112327   -2.171054   -0.173538
     22          1           0       -4.329894   -2.380960   -1.883807
     23          1           0       -2.250032   -1.037340   -1.676749
     24          1           0        5.002724   -3.179028   -0.426204
     25          1           0        6.038908   -1.913075    0.238925
     26          1           0        5.048238   -2.893870    1.325282
     27          1           0        1.976681    0.645830    2.094210
     28          1           0        3.778111   -1.041474    2.324941
     29          1           0        3.869495   -1.532113   -1.938339
     30          1           0        2.077376    0.157036   -2.176191
     31          1           0       -1.607541    1.375476    1.181943
 ---------------------------------------------------------------------
 Rotational constants (GHZ):           0.6793717           0.1860936           0.1667910
 Electric field and nuclear coordinate derivatives read from checkpoint file.
 Rotating derivatives to standard orientation.
 Full mass-weighted force constant matrix:
 Low frequencies ---   -4.9103   -0.0295   -0.0246   -0.0203    4.6122    6.3295
 Low frequencies ---   21.0142   26.8354   34.6939
 Diagonal vibrational polarizability:
       77.8266577      97.5927112      56.4254460
 Harmonic frequencies (cm**-1), IR intensities (KM/Mole), Raman scattering
 activities (A**4/AMU), depolarization ratios for plane and unpolarized
 incident light, reduced masses (AMU), force constants (mDyne/A),
 and normal coordinates:
                      1                      2                      3
                      A                      A                      A
 Frequencies --     20.9215                26.8177                34.6750
 Red. masses --      3.9713                 4.5682                 3.9403
 Frc consts  --      0.0010                 0.0019                 0.0028
 IR Inten    --      0.5659                 1.3475                 0.5602
  Atom  AN      X      Y      Z        X      Y      Z        X      Y      Z
     1   6    -0.06   0.03  -0.04    -0.10   0.13  -0.05     0.08  -0.13   0.11
     2   6    -0.07   0.06  -0.07    -0.13   0.17  -0.06     0.05  -0.09   0.11
     3   6    -0.06   0.05  -0.07    -0.11   0.09  -0.00    -0.08   0.08  -0.00
     4   6    -0.03   0.02  -0.04    -0.06  -0.03   0.07    -0.17   0.19  -0.11
     5   6    -0.01  -0.01  -0.01    -0.03  -0.07   0.07    -0.14   0.14  -0.11
     6   6     0.09   0.06  -0.05     0.18   0.12  -0.04     0.10   0.09   0.07
     7   6     0.18   0.13  -0.00    -0.04  -0.12   0.00    -0.01  -0.00   0.00
     8   6     0.21   0.16  -0.02     0.01  -0.07  -0.01     0.02   0.03   0.03
     9   6     0.06   0.03  -0.02     0.12   0.06  -0.02     0.06   0.04   0.04
    10   6    -0.11  -0.13   0.00     0.17   0.13  -0.03     0.07   0.01   0.03
    11   6    -0.13  -0.15   0.02     0.12   0.08  -0.01     0.04  -0.03   0.01
    12   6     0.01  -0.02   0.02     0.02  -0.04   0.00     0.00  -0.03  -0.01
    13   8    -0.00  -0.05   0.06    -0.01  -0.06   0.01    -0.01  -0.03  -0.04
    14   8    -0.02  -0.02   0.05    -0.04  -0.08   0.00    -0.00  -0.06  -0.04
    15  16    -0.01  -0.04   0.05    -0.01  -0.07   0.01    -0.01  -0.04  -0.03
    16   6    -0.03  -0.00  -0.01    -0.05   0.01   0.01    -0.01  -0.02   0.01
    17   6    -0.02  -0.02   0.01    -0.03  -0.02   0.01     0.01  -0.06   0.01
    18   7     0.00  -0.04   0.04    -0.01  -0.09   0.04    -0.02  -0.04  -0.03
    19   1    -0.07   0.04  -0.05    -0.12   0.19  -0.10     0.17  -0.25   0.20
    20   1    -0.09   0.08  -0.10    -0.17   0.27  -0.11     0.12  -0.18   0.20
    21   1    -0.07   0.07  -0.09    -0.13   0.13  -0.01    -0.10   0.12  -0.01
    22   1    -0.02   0.01  -0.03    -0.04  -0.09   0.11    -0.26   0.33  -0.20
    23   1     0.01  -0.03   0.02     0.01  -0.16   0.12    -0.21   0.23  -0.19
    24   1     0.03  -0.01   0.03     0.23   0.14  -0.06     0.20   0.12   0.03
    25   1     0.07   0.07  -0.18     0.15   0.18  -0.02     0.09   0.14   0.17
    26   1     0.20   0.14  -0.00     0.19   0.09  -0.05     0.06   0.04   0.05
    27   1     0.28   0.24  -0.01    -0.12  -0.21   0.02    -0.03  -0.01  -0.01
    28   1     0.34   0.28  -0.04    -0.04  -0.12  -0.01     0.02   0.05   0.04
    29   1    -0.22  -0.23   0.01     0.26   0.23  -0.04     0.10   0.01   0.04
    30   1    -0.26  -0.28   0.04     0.17   0.14  -0.01     0.05  -0.05  -0.00
    31   1    -0.03  -0.01   0.01    -0.05   0.03  -0.03     0.06  -0.10   0.04
                      4                      5                      6
                      A                      A                      A
 Frequencies --     43.5603                85.3143               102.5149
 Red. masses --      1.0302                 5.2149                 5.8582
 Frc consts  --      0.0012                 0.0224                 0.0363
 IR Inten    --      0.4433                 1.0108                 1.2813
  Atom  AN      X      Y      Z        X      Y      Z        X      Y      Z
     1   6    -0.00   0.01  -0.00    -0.03   0.09  -0.07    -0.12  -0.01   0.05
     2   6    -0.00   0.01  -0.01     0.06  -0.06   0.08    -0.05  -0.12  -0.06
     3   6     0.00  -0.00   0.00     0.08  -0.15   0.15     0.09  -0.08  -0.12
     4   6     0.01  -0.01   0.01    -0.00  -0.06   0.06     0.16   0.07  -0.07
     5   6     0.01  -0.01   0.01    -0.08   0.09  -0.08     0.08   0.16   0.05
     6   6     0.00   0.00   0.01     0.14   0.12  -0.01     0.08   0.07  -0.04
     7   6     0.01   0.01  -0.00    -0.06  -0.10   0.02    -0.04  -0.08   0.01
     8   6     0.01   0.01  -0.01    -0.01  -0.05   0.01    -0.02  -0.06  -0.01
     9   6    -0.00  -0.00  -0.01     0.03  -0.00   0.00     0.01  -0.02  -0.02
    10   6    -0.01  -0.01  -0.01    -0.02  -0.05   0.01    -0.02  -0.03  -0.01
    11   6    -0.01  -0.01  -0.00    -0.06  -0.10   0.02    -0.05  -0.06   0.01
    12   6     0.00   0.00  -0.00    -0.07  -0.11   0.02    -0.05  -0.06   0.01
    13   8     0.00  -0.00   0.00    -0.00  -0.08   0.05     0.13   0.15  -0.08
    14   8    -0.00   0.00   0.00     0.15   0.05   0.08    -0.05  -0.18  -0.12
    15  16     0.00   0.00   0.00     0.01  -0.01   0.02    -0.00  -0.02  -0.00
    16   6     0.00   0.00   0.00    -0.09   0.15  -0.14    -0.05   0.11   0.11
    17   6    -0.00   0.00   0.00    -0.09   0.17  -0.16    -0.08   0.15   0.16
    18   7     0.00   0.00   0.00    -0.05   0.10  -0.11    -0.05   0.02   0.20
    19   1    -0.01   0.01  -0.01    -0.03   0.15  -0.11    -0.24  -0.05   0.09
    20   1    -0.01   0.01  -0.01     0.11  -0.12   0.15    -0.10  -0.23  -0.11
    21   1     0.00  -0.00  -0.00     0.15  -0.28   0.27     0.15  -0.16  -0.20
    22   1     0.01  -0.01   0.01     0.01  -0.12   0.11     0.27   0.10  -0.12
    23   1     0.01  -0.01   0.01    -0.13   0.13  -0.14     0.13   0.27   0.10
    24   1     0.35   0.31  -0.32     0.22   0.11  -0.02     0.13   0.07  -0.05
    25   1     0.01   0.10   0.60     0.08   0.23  -0.03     0.04   0.15  -0.06
    26   1    -0.35  -0.39  -0.19     0.21   0.12  -0.02     0.14   0.06  -0.04
    27   1     0.02   0.02  -0.00    -0.06  -0.11   0.02    -0.04  -0.09   0.02
    28   1     0.02   0.01  -0.01     0.02  -0.03   0.01    -0.01  -0.06  -0.01
    29   1    -0.03  -0.02  -0.01    -0.00  -0.03   0.01    -0.01  -0.01  -0.02
    30   1    -0.02  -0.02  -0.00    -0.08  -0.11   0.02    -0.06  -0.05   0.01
    31   1    -0.00   0.00   0.00    -0.11   0.19  -0.18    -0.11   0.23   0.10
                      7                      8                      9
                      A                      A                      A
 Frequencies --    118.1259               162.3046               206.1976
 Red. masses --      4.5283                 5.8780                 5.9169
 Frc consts  --      0.0372                 0.0912                 0.1482
 IR Inten    --      1.4003                 1.0062                 5.8768
  Atom  AN      X      Y      Z        X      Y      Z        X      Y      Z
     1   6     0.06  -0.05   0.05     0.06  -0.02  -0.03    -0.13  -0.07   0.05
     2   6    -0.00   0.07  -0.04     0.03   0.02   0.02    -0.13  -0.07  -0.02
     3   6    -0.02   0.11  -0.07    -0.04   0.03   0.02    -0.10  -0.06  -0.04
     4   6     0.04   0.01   0.00    -0.06  -0.02  -0.00    -0.04  -0.04   0.02
     5   6     0.09  -0.09   0.08    -0.03  -0.07  -0.04    -0.06  -0.02   0.07
     6   6     0.11   0.18   0.01     0.02   0.02  -0.23    -0.07  -0.15  -0.00
     7   6    -0.14  -0.08  -0.01     0.04  -0.05   0.18     0.06   0.01   0.00
     8   6    -0.11  -0.05   0.00     0.04  -0.07   0.05     0.15   0.10  -0.01
     9   6    -0.04   0.00   0.01    -0.03  -0.00  -0.03     0.11   0.06  -0.01
    10   6    -0.09  -0.07   0.00    -0.11   0.05   0.03     0.13   0.10  -0.01
    11   6    -0.12  -0.10  -0.01    -0.10   0.07   0.16     0.06   0.02   0.01
    12   6    -0.11  -0.08  -0.02    -0.01   0.03   0.21    -0.04  -0.07   0.02
    13   8     0.02  -0.00  -0.01    -0.15   0.22  -0.10     0.03   0.03  -0.03
    14   8     0.11   0.07   0.01     0.17  -0.17  -0.07     0.28  -0.03  -0.01
    15  16    -0.00   0.04  -0.03     0.01   0.03   0.03     0.01   0.01  -0.02
    16   6     0.09  -0.10   0.09     0.03  -0.06  -0.06    -0.08  -0.02   0.07
    17   6     0.09  -0.10   0.08     0.02  -0.04  -0.07    -0.05  -0.01   0.07
    18   7    -0.06   0.14  -0.10     0.07  -0.05  -0.01    -0.19   0.24  -0.11
    19   1     0.07  -0.07   0.07     0.11  -0.01  -0.04    -0.17  -0.09   0.07
    20   1    -0.04   0.13  -0.09     0.06   0.06   0.04    -0.16  -0.07  -0.05
    21   1    -0.08   0.20  -0.14    -0.06   0.07   0.05    -0.09  -0.06  -0.08
    22   1     0.04   0.02  -0.00    -0.12  -0.02   0.00     0.01  -0.05   0.01
    23   1     0.13  -0.15   0.13    -0.05  -0.10  -0.07    -0.03  -0.02   0.10
    24   1     0.22   0.14   0.04    -0.00   0.13  -0.34    -0.22  -0.12  -0.02
    25   1     0.03   0.34  -0.03    -0.01   0.08  -0.23     0.05  -0.37   0.05
    26   1     0.22   0.21   0.03     0.11  -0.12  -0.30    -0.21  -0.18  -0.02
    27   1    -0.15  -0.08  -0.02     0.10  -0.10   0.24     0.07   0.00   0.01
    28   1    -0.10  -0.02   0.01     0.11  -0.13   0.01     0.18   0.14  -0.02
    29   1    -0.06  -0.06   0.01    -0.18   0.09  -0.02     0.15   0.13  -0.02
    30   1    -0.12  -0.12  -0.02    -0.16   0.14   0.20     0.06   0.02   0.01
    31   1     0.20  -0.29   0.21    -0.05   0.02  -0.10     0.08  -0.23   0.23
                     10                     11                     12
                      A                      A                      A
 Frequencies --    229.6795               284.5515               290.8842
 Red. masses --      8.1524                 7.5639                 3.0675
 Frc consts  --      0.2534                 0.3608                 0.1529
 IR Inten    --      0.9372                 9.7714                17.7658
  Atom  AN      X      Y      Z        X      Y      Z        X      Y      Z
     1   6    -0.06  -0.11  -0.08     0.06  -0.00  -0.03     0.03  -0.10   0.09
     2   6    -0.10  -0.07  -0.00     0.05   0.02   0.01     0.01  -0.06   0.04
     3   6    -0.20  -0.08   0.03     0.00   0.03   0.01    -0.07   0.10  -0.09
     4   6    -0.22  -0.11   0.00    -0.02  -0.01  -0.01     0.00   0.01  -0.00
     5   6    -0.17  -0.15  -0.06     0.01  -0.05  -0.04     0.06  -0.10   0.10
     6   6     0.08   0.04   0.05    -0.24   0.13   0.01     0.01  -0.01   0.04
     7   6     0.02  -0.01  -0.04    -0.14   0.07   0.01    -0.00  -0.01  -0.03
     8   6    -0.05  -0.08  -0.01    -0.08   0.18   0.00     0.01  -0.00  -0.03
     9   6    -0.02  -0.08   0.01    -0.11   0.22  -0.03     0.02  -0.00  -0.02
    10   6    -0.02  -0.09  -0.00    -0.06   0.17  -0.07     0.02  -0.01  -0.02
    11   6     0.04  -0.02  -0.03    -0.14   0.06  -0.06     0.00  -0.02  -0.03
    12   6     0.08   0.06  -0.04    -0.11  -0.07  -0.01    -0.01  -0.01  -0.03
    13   8     0.35   0.22   0.02     0.29  -0.12   0.07    -0.07   0.00  -0.00
    14   8    -0.03   0.10  -0.01     0.15  -0.20   0.00     0.09   0.04   0.03
    15  16     0.11   0.14   0.04     0.08  -0.11   0.04    -0.01   0.01   0.00
    16   6    -0.06  -0.11  -0.09     0.03  -0.03  -0.05     0.01  -0.02   0.05
    17   6    -0.06  -0.01  -0.02    -0.01   0.01  -0.03    -0.12   0.20  -0.14
    18   7     0.08   0.06   0.13     0.07  -0.07   0.08     0.03  -0.07   0.05
    19   1    -0.04  -0.10  -0.08     0.10   0.01  -0.05     0.03  -0.13   0.11
    20   1    -0.05  -0.01   0.04     0.07   0.04   0.03     0.01  -0.09   0.04
    21   1    -0.23  -0.04   0.06    -0.02   0.06   0.03    -0.16   0.26  -0.22
    22   1    -0.27  -0.11   0.01    -0.06  -0.01  -0.00    -0.01   0.06  -0.04
    23   1    -0.22  -0.22  -0.11    -0.01  -0.07  -0.06     0.10  -0.14   0.14
    24   1     0.19  -0.00   0.08    -0.31   0.13   0.02     0.02  -0.04   0.07
    25   1     0.01   0.17   0.02    -0.17   0.00   0.04     0.02  -0.03   0.05
    26   1     0.15   0.09   0.07    -0.34   0.15   0.01    -0.03   0.03   0.06
    27   1     0.04   0.02  -0.04    -0.20   0.10  -0.04    -0.01  -0.02  -0.03
    28   1    -0.09  -0.10   0.00    -0.02   0.17  -0.02     0.00   0.01  -0.03
    29   1    -0.04  -0.12   0.01     0.00   0.18  -0.04     0.02  -0.01  -0.02
    30   1     0.06  -0.02  -0.04    -0.20   0.09  -0.03     0.01  -0.03  -0.03
    31   1    -0.23   0.03  -0.03    -0.09   0.10  -0.08    -0.31   0.56  -0.39
                     13                     14                     15
                      A                      A                      A
 Frequencies --    311.9693               331.0216               378.2453
 Red. masses --      5.9129                 4.1430                 4.8692
 Frc consts  --      0.3391                 0.2675                 0.4104
 IR Inten    --      3.0786                 4.2325                 3.8677
  Atom  AN      X      Y      Z        X      Y      Z        X      Y      Z
     1   6    -0.13   0.02   0.02     0.05   0.03  -0.06    -0.07   0.04  -0.01
     2   6    -0.10  -0.04  -0.03     0.05   0.05  -0.00    -0.05  -0.00  -0.02
     3   6    -0.02  -0.10   0.01     0.04   0.00   0.04     0.01  -0.08   0.03
     4   6    -0.01   0.02   0.01    -0.01  -0.00  -0.01    -0.02   0.04  -0.01
     5   6    -0.06   0.09   0.04     0.00  -0.00  -0.08    -0.04   0.06   0.01
     6   6    -0.01   0.12   0.10     0.00  -0.04   0.21    -0.03  -0.05  -0.13
     7   6     0.05   0.09  -0.06    -0.02  -0.09  -0.06    -0.13  -0.04  -0.05
     8   6    -0.09  -0.03  -0.06     0.06  -0.01  -0.14    -0.02   0.07   0.07
     9   6    -0.15  -0.07  -0.06     0.09   0.03  -0.13     0.10   0.12   0.09
    10   6    -0.10  -0.07  -0.09     0.05   0.03  -0.13     0.08   0.02   0.08
    11   6     0.07   0.10  -0.09    -0.07  -0.06  -0.05    -0.05  -0.15  -0.04
    12   6     0.14   0.13  -0.07    -0.08  -0.08  -0.02    -0.07  -0.09  -0.08
    13   8    -0.17  -0.03  -0.01    -0.10   0.17  -0.01    -0.04   0.09  -0.08
    14   8     0.27  -0.03   0.04     0.02  -0.05   0.05     0.08   0.18   0.08
    15  16     0.08  -0.02   0.01    -0.04   0.03   0.08     0.03   0.02  -0.03
    16   6    -0.05   0.03   0.08     0.03  -0.03  -0.06     0.01  -0.02   0.07
    17   6     0.06  -0.07   0.07     0.01  -0.05   0.06     0.07  -0.07   0.03
    18   7     0.07  -0.12   0.05     0.03   0.00   0.09     0.13  -0.20   0.10
    19   1    -0.21   0.02   0.03     0.10   0.06  -0.09    -0.13   0.07  -0.03
    20   1    -0.13  -0.06  -0.05     0.06   0.08   0.01    -0.08   0.01  -0.05
    21   1     0.04  -0.20   0.02     0.06  -0.03   0.10     0.06  -0.16   0.06
    22   1     0.05   0.03  -0.02    -0.06  -0.01   0.01    -0.01   0.08  -0.06
    23   1    -0.06   0.14   0.04    -0.02  -0.00  -0.11    -0.06   0.11  -0.02
    24   1     0.21   0.01   0.20     0.07  -0.22   0.39    -0.27   0.11  -0.27
    25   1    -0.11   0.33   0.09     0.08  -0.17   0.30     0.06  -0.23  -0.15
    26   1     0.04   0.26   0.17    -0.26   0.20   0.33    -0.02  -0.24  -0.22
    27   1     0.07   0.14  -0.08    -0.00  -0.16  -0.01    -0.24  -0.05  -0.10
    28   1    -0.10  -0.07  -0.07     0.08  -0.02  -0.16    -0.10   0.11   0.11
    29   1    -0.13  -0.13  -0.07     0.03   0.08  -0.17     0.14  -0.02   0.13
    30   1     0.10   0.18  -0.08    -0.13  -0.07  -0.03    -0.08  -0.30  -0.07
    31   1     0.12  -0.07   0.07    -0.05  -0.09   0.09     0.02   0.08  -0.08
                     16                     17                     18
                      A                      A                      A
 Frequencies --    412.2622               418.1847               418.6271
 Red. masses --      4.0084                 3.0503                 3.0321
 Frc consts  --      0.4014                 0.3143                 0.3131
 IR Inten    --      3.8406                 0.4714                 0.2544
  Atom  AN      X      Y      Z        X      Y      Z        X      Y      Z
     1   6     0.07  -0.00  -0.05     0.08  -0.11   0.07     0.05  -0.12   0.10
     2   6     0.06   0.04   0.01    -0.04   0.10  -0.06    -0.08   0.10  -0.08
     3   6     0.02   0.04   0.03    -0.00   0.03  -0.00    -0.01   0.00  -0.02
     4   6    -0.01  -0.02  -0.01     0.06  -0.11   0.08     0.07  -0.12   0.09
     5   6     0.02  -0.04  -0.08    -0.05   0.08  -0.09    -0.07   0.13  -0.06
     6   6     0.02  -0.01  -0.09     0.01  -0.00  -0.04    -0.01   0.00   0.03
     7   6    -0.10  -0.01  -0.12     0.10   0.13  -0.05    -0.09  -0.12   0.04
     8   6     0.02   0.13   0.04    -0.12  -0.09   0.03     0.10   0.08  -0.02
     9   6    -0.03  -0.04   0.11    -0.02  -0.02   0.04     0.02   0.02  -0.03
    10   6    -0.03  -0.14   0.08     0.11   0.09   0.01    -0.10  -0.07  -0.01
    11   6     0.17   0.05  -0.11    -0.06  -0.11  -0.03     0.05   0.09   0.02
    12   6     0.00  -0.01  -0.13     0.00   0.00  -0.04    -0.00  -0.00   0.03
    13   8    -0.08   0.03   0.04    -0.03   0.01   0.01     0.03  -0.00  -0.01
    14   8     0.06  -0.10   0.01     0.03  -0.04   0.00    -0.02   0.04   0.00
    15  16    -0.04  -0.00   0.06    -0.01  -0.00   0.02     0.01   0.00  -0.02
    16   6     0.02  -0.03  -0.07    -0.00   0.00  -0.03    -0.01   0.02   0.01
    17   6    -0.07   0.03   0.09    -0.03   0.03   0.01     0.01   0.01  -0.04
    18   7    -0.05   0.09   0.13    -0.01   0.02   0.04     0.03  -0.05  -0.02
    19   1     0.14   0.01  -0.07     0.18  -0.25   0.16     0.12  -0.29   0.23
    20   1     0.08   0.07   0.04    -0.09   0.21  -0.13    -0.16   0.21  -0.18
    21   1     0.01   0.06   0.05    -0.02   0.06  -0.01    -0.02   0.02  -0.04
    22   1    -0.07  -0.04   0.02     0.11  -0.24   0.17     0.17  -0.24   0.18
    23   1     0.01  -0.07  -0.09    -0.12   0.20  -0.18    -0.15   0.28  -0.16
    24   1    -0.04   0.11  -0.21     0.00   0.04  -0.07    -0.01  -0.03   0.06
    25   1    -0.03   0.06  -0.16    -0.02   0.04  -0.06     0.02  -0.04   0.05
    26   1     0.18  -0.17  -0.17     0.07  -0.05  -0.06    -0.07   0.04   0.05
    27   1    -0.22  -0.02  -0.17     0.21   0.30  -0.09    -0.19  -0.26   0.07
    28   1     0.05   0.32   0.08    -0.25  -0.17   0.05     0.21   0.15  -0.04
    29   1    -0.03  -0.27   0.15     0.25   0.18   0.02    -0.21  -0.16  -0.02
    30   1     0.37   0.11  -0.17    -0.14  -0.25  -0.03     0.11   0.20   0.03
    31   1    -0.16  -0.02   0.13    -0.06   0.02   0.02     0.02   0.05  -0.07
                     19                     20                     21
                      A                      A                      A
 Frequencies --    484.1405               495.1282               532.6290
 Red. masses --      4.3760                 3.9601                 6.6415
 Frc consts  --      0.6043                 0.5720                 1.1101
 IR Inten    --     24.4449                56.9435                 5.4285
  Atom  AN      X      Y      Z        X      Y      Z        X      Y      Z
     1   6    -0.01  -0.02  -0.02    -0.02   0.01   0.03     0.04  -0.02  -0.11
     2   6    -0.00  -0.05   0.00     0.04  -0.11   0.07     0.07  -0.05   0.06
     3   6    -0.08   0.00  -0.03    -0.07   0.12  -0.11    -0.07   0.10  -0.03
     4   6    -0.02  -0.03   0.04     0.06  -0.07   0.06     0.00  -0.07   0.05
     5   6    -0.02  -0.01   0.03     0.00   0.00   0.05     0.02  -0.04  -0.10
     6   6    -0.00  -0.01  -0.00    -0.04   0.04  -0.02    -0.02   0.02   0.01
     7   6    -0.08  -0.07  -0.01    -0.01  -0.00  -0.02     0.02  -0.01   0.11
     8   6    -0.04  -0.02   0.01    -0.01   0.02   0.02     0.03  -0.02  -0.00
     9   6     0.16   0.18  -0.01    -0.03   0.02   0.02    -0.02  -0.00  -0.04
    10   6    -0.03  -0.03   0.01     0.02  -0.01  -0.01    -0.01   0.02  -0.03
    11   6    -0.07  -0.08  -0.01     0.02  -0.03  -0.06    -0.02   0.02   0.08
    12   6     0.14   0.15  -0.03     0.03  -0.05  -0.03    -0.00  -0.03   0.08
    13   8    -0.12  -0.12   0.10    -0.00   0.15  -0.05    -0.04  -0.14  -0.14
    14   8    -0.04  -0.11  -0.13    -0.06  -0.01   0.10     0.06   0.21  -0.00
    15  16     0.08   0.08   0.01     0.03  -0.06   0.07     0.02  -0.05  -0.16
    16   6    -0.00   0.08  -0.04    -0.13   0.22  -0.12    -0.04   0.11  -0.17
    17   6     0.06   0.04   0.03     0.06  -0.08  -0.04    -0.04   0.03   0.28
    18   7     0.06   0.10   0.03     0.02  -0.03  -0.11    -0.03   0.01   0.30
    19   1    -0.02  -0.07   0.02     0.03  -0.14   0.15     0.16  -0.11  -0.05
    20   1     0.05  -0.08   0.06     0.14  -0.32   0.20     0.20  -0.15   0.21
    21   1    -0.09   0.03  -0.05    -0.12   0.21  -0.19    -0.10   0.16  -0.04
    22   1     0.04  -0.07   0.06     0.19  -0.25   0.18     0.02  -0.25   0.18
    23   1    -0.01  -0.09   0.04     0.13  -0.18   0.21     0.06  -0.23  -0.04
    24   1    -0.20   0.02  -0.02    -0.06   0.06  -0.04     0.02  -0.02   0.05
    25   1     0.14  -0.28   0.03    -0.05   0.04  -0.03    -0.03   0.04   0.03
    26   1    -0.16  -0.04  -0.02    -0.02   0.01  -0.03    -0.05   0.07   0.03
    27   1    -0.27  -0.26   0.00    -0.04   0.03  -0.06     0.07  -0.02   0.13
    28   1    -0.24  -0.21   0.03     0.00   0.03   0.02     0.11  -0.06  -0.04
    29   1    -0.21  -0.24   0.03     0.07  -0.04   0.03    -0.02   0.08  -0.06
    30   1    -0.26  -0.31  -0.00     0.03  -0.02  -0.06    -0.04   0.08   0.11
    31   1     0.07  -0.05   0.10     0.27  -0.33   0.13    -0.11  -0.09   0.37
                     22                     23                     24
                      A                      A                      A
 Frequencies --    547.3412               561.7048               628.4085
 Red. masses --      5.0300                 6.3789                 6.6887
 Frc consts  --      0.8878                 1.1858                 1.5562
 IR Inten    --    175.9888                72.2633                25.5578
  Atom  AN      X      Y      Z        X      Y      Z        X      Y      Z
     1   6    -0.01   0.04   0.06    -0.03   0.04   0.02    -0.10   0.05   0.13
     2   6     0.02   0.04   0.06     0.03  -0.06   0.05    -0.07   0.05   0.15
     3   6     0.12   0.09   0.01    -0.02   0.07  -0.06     0.19   0.14   0.01
     4   6     0.06  -0.01  -0.05     0.04  -0.05   0.03     0.09  -0.03  -0.09
     5   6     0.04  -0.02  -0.06    -0.02   0.03   0.01     0.05  -0.04  -0.11
     6   6     0.06  -0.04   0.01     0.18  -0.16   0.02    -0.15   0.12  -0.02
     7   6    -0.01   0.02  -0.02    -0.07   0.05  -0.10     0.04  -0.09   0.07
     8   6    -0.07  -0.06  -0.02    -0.02   0.06  -0.10     0.09  -0.02   0.07
     9   6     0.15   0.10  -0.01     0.03  -0.16   0.02    -0.09   0.02  -0.01
    10   6    -0.07  -0.04   0.03    -0.03   0.08   0.09     0.09  -0.04  -0.07
    11   6    -0.02   0.03   0.03    -0.07   0.07   0.08     0.05  -0.10  -0.03
    12   6     0.14   0.24  -0.02    -0.23   0.05  -0.01     0.06  -0.12   0.02
    13   8     0.15   0.05  -0.04     0.07  -0.09   0.15    -0.05  -0.04   0.10
    14   8     0.12   0.03   0.08     0.11  -0.06  -0.14    -0.00   0.02  -0.14
    15  16    -0.11  -0.05  -0.01    -0.08   0.15  -0.02     0.08   0.15  -0.01
    16   6    -0.10  -0.05  -0.02    -0.08   0.11  -0.06    -0.20  -0.11  -0.02
    17   6    -0.14  -0.10  -0.01     0.06  -0.13  -0.01    -0.15  -0.17  -0.07
    18   7    -0.14  -0.10  -0.02     0.10  -0.16   0.03    -0.03  -0.05   0.03
    19   1     0.09   0.06   0.02     0.01  -0.05   0.09     0.07   0.09   0.08
    20   1    -0.03  -0.03   0.02     0.08  -0.22   0.13    -0.18  -0.13   0.06
    21   1     0.12   0.09   0.01    -0.03   0.10  -0.08     0.21   0.12  -0.03
    22   1    -0.02  -0.04  -0.00     0.13  -0.18   0.12    -0.07  -0.11  -0.00
    23   1     0.10   0.04  -0.00     0.07  -0.05   0.10     0.18   0.10   0.02
    24   1    -0.07  -0.03   0.01     0.23  -0.16   0.02    -0.11   0.12  -0.02
    25   1     0.16  -0.22   0.03     0.13  -0.07   0.01    -0.18   0.18  -0.02
    26   1    -0.06  -0.04   0.01     0.23  -0.16   0.02    -0.12   0.13  -0.02
    27   1    -0.17  -0.19   0.02     0.10   0.10  -0.05     0.06  -0.02   0.04
    28   1    -0.33  -0.28   0.02     0.01   0.28  -0.05     0.25  -0.02   0.01
    29   1    -0.34  -0.26   0.02     0.01   0.28  -0.01     0.25  -0.02  -0.01
    30   1    -0.20  -0.20   0.04     0.10   0.12   0.02     0.06  -0.03  -0.02
    31   1    -0.13  -0.10  -0.01     0.08  -0.13  -0.02    -0.25  -0.17  -0.06
                     25                     26                     27
                      A                      A                      A
 Frequencies --    635.5111               651.5331               688.4311
 Red. masses --      6.4771                 6.9492                 7.0548
 Frc consts  --      1.5413                 1.7380                 1.9700
 IR Inten    --      0.1859                 0.2751               212.0175
  Atom  AN      X      Y      Z        X      Y      Z        X      Y      Z
     1   6     0.13   0.22   0.20    -0.00  -0.01  -0.00    -0.05  -0.00   0.13
     2   6     0.30   0.04  -0.17    -0.01  -0.00   0.00    -0.08   0.07   0.06
     3   6     0.06  -0.05  -0.12    -0.00  -0.00   0.00     0.14   0.04   0.03
     4   6    -0.13  -0.25  -0.23     0.00   0.01   0.01     0.00  -0.02  -0.12
     5   6    -0.27  -0.05   0.14     0.01   0.00   0.00     0.02  -0.08  -0.04
     6   6    -0.02   0.02  -0.00     0.00  -0.01  -0.06     0.19  -0.17   0.02
     7   6     0.01  -0.00   0.02    -0.21   0.22   0.18    -0.13   0.08  -0.02
     8   6     0.00  -0.00   0.00    -0.21   0.17  -0.24    -0.09   0.10  -0.08
     9   6    -0.01   0.01  -0.01     0.01  -0.01  -0.12     0.03  -0.07   0.01
    10   6     0.01  -0.01  -0.01     0.21  -0.22  -0.18    -0.09   0.11   0.05
    11   6     0.01  -0.01   0.00     0.20  -0.17   0.24    -0.13   0.08   0.00
    12   6     0.01  -0.01   0.01    -0.00   0.02   0.11    -0.06   0.03  -0.00
    13   8    -0.01  -0.01   0.00     0.00   0.01   0.02    -0.10  -0.01  -0.11
    14   8     0.01   0.01  -0.01    -0.01  -0.02   0.01    -0.11   0.02   0.05
    15  16    -0.00   0.01  -0.01    -0.00   0.00   0.02     0.25  -0.10   0.02
    16   6    -0.06   0.05   0.11     0.00   0.00   0.00    -0.12  -0.05  -0.01
    17   6    -0.02   0.01   0.03     0.01  -0.00  -0.01    -0.07  -0.01  -0.05
    18   7    -0.02   0.01   0.05     0.01   0.01  -0.01     0.01   0.12   0.03
    19   1    -0.00   0.17   0.25    -0.01  -0.00  -0.00     0.06  -0.00   0.11
    20   1     0.21  -0.08  -0.26    -0.01   0.00   0.00    -0.19  -0.02  -0.04
    21   1    -0.09   0.12   0.24     0.00  -0.01  -0.01     0.17  -0.02   0.07
    22   1     0.01  -0.21  -0.28     0.00   0.01   0.00    -0.13  -0.03  -0.09
    23   1    -0.17   0.06   0.23     0.00   0.00  -0.00     0.12  -0.01   0.06
    24   1    -0.02   0.02  -0.00    -0.03   0.04  -0.10     0.20  -0.18   0.02
    25   1    -0.02   0.02  -0.00     0.00  -0.01  -0.08     0.19  -0.16   0.02
    26   1    -0.02   0.02  -0.00     0.03  -0.06  -0.09     0.19  -0.17   0.02
    27   1     0.00  -0.01   0.02    -0.14   0.15   0.26    -0.08   0.16  -0.04
    28   1     0.02  -0.02  -0.00    -0.13   0.08  -0.28    -0.10   0.27  -0.03
    29   1     0.02  -0.02  -0.01     0.13  -0.16  -0.25    -0.10   0.27  -0.04
    30   1     0.00  -0.01   0.01     0.13  -0.09   0.29    -0.07   0.16   0.01
    31   1    -0.02   0.01   0.03     0.01  -0.01  -0.01    -0.11  -0.12   0.04
                     28                     29                     30
                      A                      A                      A
 Frequencies --    710.2673               724.2755               787.4209
 Red. masses --      1.8995                 3.5589                 1.6699
 Frc consts  --      0.5646                 1.0999                 0.6100
 IR Inten    --     25.9824                 7.0202                59.3131
  Atom  AN      X      Y      Z        X      Y      Z        X      Y      Z
     1   6    -0.04   0.07  -0.04     0.01  -0.00  -0.01     0.04  -0.07   0.04
     2   6     0.06  -0.11   0.08     0.01  -0.01  -0.01     0.01  -0.00  -0.00
     3   6    -0.02   0.06  -0.04    -0.01  -0.01   0.00     0.04  -0.09   0.06
     4   6     0.06  -0.11   0.07    -0.00   0.00   0.01    -0.00   0.01   0.00
     5   6    -0.04   0.06  -0.05     0.00   0.00   0.00     0.04  -0.06   0.05
     6   6     0.01  -0.01   0.00    -0.03  -0.03   0.00    -0.00   0.01  -0.00
     7   6    -0.01   0.01  -0.00    -0.11  -0.11  -0.00     0.00  -0.00  -0.00
     8   6    -0.01   0.00  -0.00     0.12   0.12  -0.02    -0.00  -0.01  -0.00
     9   6     0.01   0.00   0.00    -0.15  -0.17   0.02     0.00   0.00  -0.00
    10   6    -0.01   0.00   0.00     0.12   0.12  -0.00    -0.00  -0.00   0.00
    11   6    -0.00   0.01  -0.00    -0.10  -0.11   0.02     0.00  -0.00   0.00
    12   6    -0.00  -0.00   0.00     0.17   0.20  -0.02    -0.01  -0.00   0.00
    13   8    -0.01   0.00  -0.01     0.01   0.01  -0.01     0.00   0.00   0.01
    14   8    -0.01  -0.00   0.01     0.01  -0.01   0.02     0.01   0.01  -0.01
    15  16     0.02  -0.01   0.00    -0.01  -0.01   0.00    -0.00   0.01  -0.00
    16   6     0.04  -0.09   0.07     0.01   0.00   0.00    -0.07   0.12  -0.09
    17   6    -0.00  -0.00  -0.00    -0.01   0.01   0.01    -0.00  -0.00   0.01
    18   7    -0.00   0.02  -0.00    -0.03  -0.01  -0.01    -0.01  -0.03   0.01
    19   1    -0.22   0.39  -0.28    -0.01   0.02  -0.03    -0.06   0.11  -0.09
    20   1    -0.07   0.10  -0.08     0.01   0.03  -0.02    -0.24   0.44  -0.31
    21   1    -0.24   0.43  -0.31    -0.03   0.02  -0.01    -0.20   0.33  -0.24
    22   1    -0.07   0.10  -0.08    -0.01   0.03  -0.01    -0.23   0.42  -0.29
    23   1    -0.21   0.38  -0.27    -0.02   0.01  -0.02    -0.05   0.08  -0.06
    24   1     0.01  -0.01   0.00     0.20  -0.04  -0.00    -0.01   0.01  -0.00
    25   1     0.02  -0.02   0.00    -0.20   0.30  -0.04     0.00  -0.01   0.00
    26   1     0.01  -0.01   0.00     0.17  -0.01   0.01    -0.01   0.01  -0.00
    27   1    -0.00   0.02  -0.00    -0.28  -0.32   0.03     0.02   0.01  -0.00
    28   1    -0.02   0.01  -0.00     0.21   0.24  -0.03     0.01   0.01  -0.00
    29   1    -0.02   0.01  -0.00     0.22   0.23  -0.02     0.01   0.01   0.00
    30   1    -0.00   0.02  -0.00    -0.28  -0.32   0.03     0.02   0.01   0.00
    31   1    -0.02   0.01  -0.01     0.01   0.01   0.02     0.08  -0.14   0.11
                     31                     32                     33
                      A                      A                      A
 Frequencies --    800.5995               835.0282               842.2468
 Red. masses --      7.5224                 5.7075                 1.4071
 Frc consts  --      2.8408                 2.3448                 0.5881
 IR Inten    --    359.9489               126.4586                11.0143
  Atom  AN      X      Y      Z        X      Y      Z        X      Y      Z
     1   6    -0.10   0.02   0.13     0.02  -0.00  -0.03    -0.01   0.00   0.01
     2   6    -0.13   0.00   0.11     0.03   0.00  -0.02    -0.01   0.00   0.01
     3   6     0.08   0.02   0.00    -0.02   0.00  -0.00     0.00   0.00  -0.00
     4   6    -0.01  -0.07  -0.09     0.00   0.01   0.02    -0.00  -0.01  -0.01
     5   6    -0.01  -0.05  -0.03     0.00   0.01  -0.00    -0.00  -0.00  -0.01
     6   6    -0.10   0.07  -0.01    -0.17   0.15  -0.02     0.01   0.03  -0.00
     7   6     0.07  -0.03  -0.10     0.08  -0.09  -0.25    -0.04  -0.05  -0.01
     8   6     0.05  -0.02  -0.07     0.01  -0.04  -0.24    -0.04  -0.05   0.00
     9   6     0.00  -0.02   0.00     0.07  -0.03   0.01     0.03   0.03  -0.00
    10   6     0.04   0.01   0.08     0.00   0.01   0.24    -0.04  -0.05   0.01
    11   6     0.06   0.00   0.11     0.06  -0.03   0.26    -0.05  -0.06   0.02
    12   6    -0.07   0.06  -0.01    -0.14   0.08  -0.01     0.06   0.08  -0.01
    13   8     0.02  -0.05  -0.08    -0.02   0.00  -0.02     0.01  -0.00  -0.01
    14   8     0.01  -0.03   0.06    -0.03  -0.00   0.01     0.01  -0.01   0.01
    15  16    -0.15  -0.07  -0.03     0.12  -0.00   0.02    -0.02  -0.01  -0.00
    16   6    -0.03   0.01  -0.02     0.00  -0.02   0.01     0.00  -0.00   0.00
    17   6     0.14  -0.02  -0.12    -0.04   0.02   0.04     0.01   0.01  -0.01
    18   7     0.39   0.30   0.12    -0.12  -0.08  -0.04     0.02   0.02   0.00
    19   1    -0.10   0.04   0.12     0.03  -0.00  -0.04    -0.01   0.00   0.01
    20   1    -0.28  -0.07  -0.04     0.07   0.00   0.02    -0.01  -0.02   0.01
    21   1     0.06   0.07  -0.08     0.00  -0.03   0.04     0.01  -0.01   0.00
    22   1    -0.14  -0.03  -0.10     0.03  -0.02   0.03    -0.01  -0.02   0.00
    23   1     0.03   0.02  -0.01    -0.00   0.00  -0.00    -0.00  -0.00  -0.01
    24   1    -0.03   0.08  -0.02    -0.19   0.18  -0.04    -0.15   0.03   0.01
    25   1    -0.16   0.18  -0.02    -0.20   0.18  -0.03     0.11  -0.18   0.02
    26   1    -0.04   0.10   0.00    -0.18   0.17  -0.01    -0.14   0.01  -0.02
    27   1    -0.02  -0.28  -0.01     0.29  -0.24  -0.08     0.28   0.27  -0.04
    28   1    -0.14  -0.17  -0.04    -0.12   0.06  -0.17     0.35   0.35  -0.04
    29   1    -0.16  -0.14   0.07    -0.11   0.09   0.15     0.37   0.38  -0.03
    30   1    -0.04  -0.27   0.08     0.28  -0.20   0.15     0.32   0.32  -0.02
    31   1    -0.01  -0.09  -0.06     0.01   0.02   0.04     0.01   0.00  -0.00
                     34                     35                     36
                      A                      A                      A
 Frequencies --    869.1170               880.4795               890.2650
 Red. masses --      1.2474                 1.2506                 4.5370
 Frc consts  --      0.5551                 0.5712                 2.1187
 IR Inten    --      0.0598                 0.0232                44.2903
  Atom  AN      X      Y      Z        X      Y      Z        X      Y      Z
     1   6    -0.00   0.00  -0.00    -0.03   0.06  -0.04    -0.06  -0.01   0.04
     2   6    -0.00   0.00  -0.00    -0.03   0.05  -0.04    -0.14   0.01   0.12
     3   6     0.00  -0.00   0.00     0.00  -0.00   0.00     0.08   0.06   0.03
     4   6     0.00  -0.00   0.00     0.03  -0.05   0.04    -0.05  -0.16  -0.18
     5   6     0.00  -0.00   0.00     0.03  -0.06   0.04     0.01  -0.10  -0.15
     6   6     0.00   0.00   0.00    -0.00   0.00  -0.00     0.00  -0.00   0.00
     7   6    -0.05  -0.06   0.01     0.00   0.00  -0.00     0.00   0.00   0.00
     8   6    -0.05  -0.05   0.00     0.00   0.00  -0.00     0.00   0.00   0.00
     9   6     0.00  -0.00  -0.00     0.00  -0.00   0.00    -0.00   0.00   0.00
    10   6     0.04   0.05  -0.00    -0.00  -0.00   0.00     0.01  -0.00  -0.01
    11   6     0.05   0.06  -0.00    -0.00  -0.00   0.00     0.00   0.00  -0.01
    12   6     0.00   0.00   0.00     0.00   0.00  -0.00    -0.01  -0.01   0.00
    13   8     0.00  -0.00  -0.00    -0.00   0.00  -0.00     0.01   0.03   0.04
    14   8     0.00  -0.00   0.00    -0.00  -0.00   0.00     0.00  -0.01  -0.00
    15  16    -0.00  -0.00  -0.00     0.00  -0.00   0.00    -0.01   0.01   0.01
    16   6     0.00   0.00  -0.00    -0.00   0.01  -0.00     0.07   0.06   0.02
    17   6    -0.00   0.00  -0.00     0.00  -0.00   0.00     0.19   0.24   0.18
    18   7     0.00   0.00   0.00    -0.00   0.00  -0.00    -0.06  -0.12  -0.11
    19   1     0.00  -0.00   0.00     0.22  -0.38   0.27    -0.03   0.01   0.03
    20   1     0.00  -0.00   0.00     0.20  -0.35   0.25    -0.23  -0.09   0.05
    21   1    -0.00   0.00  -0.00    -0.01   0.02  -0.02     0.05   0.08   0.07
    22   1    -0.00   0.00  -0.00    -0.22   0.38  -0.27    -0.31  -0.24  -0.08
    23   1    -0.00   0.00  -0.00    -0.20   0.35  -0.25    -0.01  -0.14  -0.19
    24   1    -0.01   0.01  -0.00    -0.00   0.00   0.00     0.00   0.00  -0.00
    25   1     0.01  -0.01  -0.01     0.00  -0.00   0.00    -0.00   0.01  -0.00
    26   1    -0.01  -0.01  -0.00    -0.00   0.00  -0.00     0.01  -0.01  -0.00
    27   1     0.34   0.37  -0.04    -0.00  -0.00   0.00    -0.01  -0.01   0.00
    28   1     0.36   0.37  -0.04    -0.00  -0.00  -0.00    -0.02  -0.02   0.01
    29   1    -0.31  -0.33   0.03     0.00   0.00   0.00    -0.01  -0.04   0.00
    30   1    -0.33  -0.36   0.03     0.00   0.00  -0.00    -0.01  -0.01  -0.01
    31   1     0.00  -0.00   0.00    -0.01   0.01  -0.01     0.51   0.35   0.09
                     37                     38                     39
                      A                      A                      A
 Frequencies --    969.0116               992.5229              1004.3571
 Red. masses --      1.3411                 1.2783                 1.3577
 Frc consts  --      0.7420                 0.7419                 0.8069
 IR Inten    --      2.8889                 0.0141                 0.0557
  Atom  AN      X      Y      Z        X      Y      Z        X      Y      Z
     1   6     0.04  -0.08   0.06    -0.00   0.00   0.00    -0.00   0.00  -0.00
     2   6    -0.01   0.02  -0.02     0.00  -0.00  -0.00     0.00  -0.00   0.00
     3   6    -0.04   0.07  -0.05    -0.00  -0.00   0.00     0.00  -0.00   0.00
     4   6     0.00  -0.00   0.00    -0.00   0.00   0.00    -0.00   0.00  -0.00
     5   6     0.04  -0.06   0.04    -0.00   0.00  -0.00     0.00  -0.00  -0.00
     6   6    -0.00  -0.00  -0.00    -0.02  -0.02   0.00    -0.00  -0.00  -0.01
     7   6    -0.00  -0.00   0.00    -0.05  -0.06  -0.00    -0.06  -0.07   0.01
     8   6     0.00   0.00   0.00     0.04   0.04   0.01     0.07   0.07  -0.00
     9   6    -0.00   0.00  -0.00     0.01   0.01  -0.00     0.00   0.00  -0.01
    10   6     0.00   0.00  -0.00     0.05   0.05  -0.02    -0.06  -0.06   0.01
    11   6    -0.00  -0.00  -0.00    -0.06  -0.06   0.01     0.06   0.06  -0.00
    12   6    -0.00  -0.00  -0.00     0.01   0.02  -0.00     0.00   0.00  -0.00
    13   8     0.00   0.00   0.00     0.00  -0.00  -0.00    -0.00   0.00  -0.00
    14   8     0.00   0.00  -0.00     0.00  -0.00   0.00     0.00  -0.00   0.00
    15  16    -0.00   0.00  -0.00    -0.00  -0.00  -0.00    -0.00   0.00  -0.00
    16   6    -0.02   0.03  -0.02     0.00  -0.00   0.00     0.00  -0.00   0.00
    17   6    -0.01   0.02  -0.01    -0.00   0.00  -0.00    -0.00   0.00  -0.00
    18   7     0.01  -0.01   0.01     0.00   0.00   0.00    -0.00  -0.00   0.00
    19   1    -0.25   0.44  -0.32     0.00  -0.01   0.01     0.00  -0.00   0.00
    20   1     0.08  -0.13   0.10    -0.00   0.00  -0.00    -0.00   0.00  -0.00
    21   1     0.23  -0.40   0.29    -0.00   0.00  -0.00    -0.00   0.00  -0.00
    22   1    -0.00   0.01  -0.01     0.00  -0.00   0.00     0.00  -0.00   0.00
    23   1    -0.21   0.36  -0.26     0.00  -0.01   0.00    -0.00  -0.00  -0.00
    24   1     0.00  -0.00   0.00     0.09  -0.01  -0.02     0.03  -0.03   0.02
    25   1    -0.00   0.00   0.00    -0.08   0.11  -0.02    -0.00   0.01   0.02
    26   1     0.00   0.00   0.00     0.09   0.00   0.01    -0.02   0.03   0.01
    27   1     0.00   0.00  -0.00     0.33   0.38  -0.06     0.34   0.40  -0.05
    28   1    -0.00  -0.01   0.00    -0.27  -0.27   0.04    -0.36  -0.38   0.04
    29   1    -0.00  -0.01  -0.00    -0.34  -0.34   0.01     0.32   0.35  -0.03
    30   1     0.00   0.00  -0.00     0.36   0.41  -0.02    -0.28  -0.33   0.02
    31   1     0.09  -0.15   0.11     0.00  -0.01   0.00     0.00  -0.00   0.00
                     40                     41                     42
                      A                      A                      A
 Frequencies --   1013.0955              1026.3454              1031.4468
 Red. masses --      1.3676                 6.0720                 1.3884
 Frc consts  --      0.8270                 3.7685                 0.8703
 IR Inten    --      0.0593                 2.3083                 0.4130
  Atom  AN      X      Y      Z        X      Y      Z        X      Y      Z
     1   6    -0.03   0.06  -0.04     0.03   0.24   0.31     0.00   0.00   0.00
     2   6     0.04  -0.07   0.05     0.04  -0.02  -0.06     0.00  -0.00  -0.00
     3   6    -0.01   0.02  -0.01    -0.30  -0.19  -0.02    -0.00   0.00  -0.00
     4   6    -0.03   0.06  -0.04     0.00   0.04   0.06     0.00   0.00   0.00
     5   6     0.04  -0.07   0.05     0.27  -0.05  -0.29     0.00  -0.00  -0.00
     6   6     0.00   0.00   0.00     0.00   0.00  -0.00    -0.00   0.01   0.14
     7   6     0.00   0.00  -0.00     0.00   0.00   0.00     0.02  -0.02  -0.02
     8   6    -0.00   0.00  -0.00    -0.00   0.00  -0.00     0.01  -0.00  -0.05
     9   6    -0.00  -0.00   0.00    -0.00  -0.00  -0.00    -0.00   0.01   0.05
    10   6     0.00   0.00   0.00    -0.00   0.00   0.00    -0.00  -0.02  -0.07
    11   6    -0.00  -0.00  -0.00     0.00   0.00  -0.00    -0.02   0.02  -0.02
    12   6     0.00  -0.00   0.00     0.00  -0.00   0.00    -0.01   0.01   0.03
    13   8    -0.00   0.00  -0.00    -0.00   0.00   0.01     0.00  -0.01  -0.01
    14   8     0.00  -0.00   0.00    -0.00   0.00  -0.01    -0.00   0.00  -0.00
    15  16     0.00   0.00   0.00     0.00  -0.00   0.00     0.00   0.00  -0.00
    16   6    -0.00   0.01  -0.01    -0.03  -0.01   0.00    -0.00   0.00  -0.00
    17   6     0.00  -0.00   0.00    -0.01   0.00   0.00    -0.00  -0.00   0.00
    18   7    -0.00   0.00  -0.00    -0.00  -0.00  -0.00    -0.00   0.00   0.00
    19   1     0.17  -0.30   0.22    -0.06   0.23   0.36    -0.00   0.00   0.00
    20   1    -0.22   0.39  -0.28    -0.00  -0.07  -0.08    -0.00   0.00  -0.00
    21   1     0.06  -0.11   0.08    -0.31  -0.20  -0.02     0.00  -0.00   0.00
    22   1     0.19  -0.33   0.24    -0.07   0.02   0.07    -0.00   0.00  -0.00
    23   1    -0.23   0.40  -0.29     0.24  -0.13  -0.35     0.00   0.00   0.00
    24   1    -0.00   0.00  -0.00     0.00  -0.00   0.00    -0.38   0.43  -0.24
    25   1     0.00  -0.00  -0.00     0.00  -0.00   0.00    -0.04  -0.00  -0.28
    26   1     0.00  -0.00  -0.00    -0.01   0.00   0.00     0.43  -0.49  -0.10
    27   1    -0.00  -0.00   0.00    -0.01  -0.00  -0.00     0.13  -0.07   0.05
    28   1     0.00   0.00  -0.00     0.00   0.00  -0.00    -0.02  -0.04  -0.06
    29   1    -0.00  -0.00   0.00     0.00   0.00   0.01     0.02   0.04  -0.10
    30   1     0.00   0.00  -0.00    -0.00  -0.00  -0.00    -0.13   0.08   0.04
    31   1    -0.01   0.01  -0.01     0.05   0.02  -0.01    -0.01   0.00  -0.00
                     43                     44                     45
                      A                      A                      A
 Frequencies --   1038.3899              1043.1745              1066.7970
 Red. masses --      1.3144                 3.4295                 1.9630
 Frc consts  --      0.8350                 2.1988                 1.3162
 IR Inten    --      0.0731                 9.3566                10.0453
  Atom  AN      X      Y      Z        X      Y      Z        X      Y      Z
     1   6     0.01  -0.02   0.01    -0.00   0.00  -0.00    -0.06   0.01   0.02
     2   6    -0.03   0.05  -0.04     0.00  -0.00  -0.00     0.07  -0.06  -0.12
     3   6     0.04  -0.08   0.05    -0.00   0.00  -0.00     0.11   0.07   0.00
     4   6    -0.04   0.07  -0.05     0.00  -0.00   0.00    -0.04   0.07   0.13
     5   6     0.02  -0.03   0.02     0.00   0.00  -0.00    -0.03  -0.04  -0.05
     6   6     0.00  -0.00   0.00     0.00  -0.03  -0.01     0.00   0.00   0.00
     7   6     0.00  -0.00  -0.00     0.03  -0.03  -0.19     0.00   0.00   0.00
     8   6     0.00  -0.00   0.00     0.02  -0.02   0.25     0.00  -0.00  -0.00
     9   6    -0.00   0.00   0.00    -0.02   0.04  -0.01    -0.00  -0.00   0.00
    10   6     0.00  -0.00  -0.00     0.03  -0.07  -0.23     0.00   0.00   0.00
    11   6     0.00   0.00   0.00     0.02   0.01   0.20     0.00   0.00  -0.00
    12   6    -0.00   0.00  -0.00    -0.09   0.07  -0.01    -0.00  -0.00   0.00
    13   8     0.00   0.00   0.00    -0.00  -0.02  -0.03    -0.00   0.00   0.01
    14   8     0.00   0.00  -0.00    -0.01  -0.02   0.03     0.00   0.01  -0.01
    15  16    -0.00   0.00  -0.00     0.02   0.01   0.00    -0.00  -0.00  -0.00
    16   6     0.00  -0.01   0.00    -0.00  -0.00   0.00     0.01  -0.03   0.02
    17   6    -0.01   0.02  -0.01    -0.00   0.01   0.00    -0.03   0.09  -0.04
    18   7     0.00  -0.01   0.01    -0.01  -0.01  -0.00     0.02  -0.03   0.01
    19   1    -0.07   0.12  -0.09     0.01  -0.01   0.01    -0.26  -0.15   0.18
    20   1     0.19  -0.33   0.23    -0.00   0.01  -0.01    -0.13  -0.25  -0.32
    21   1    -0.25   0.44  -0.32     0.00  -0.01   0.01     0.14   0.06   0.01
    22   1     0.22  -0.39   0.28    -0.01   0.01  -0.01    -0.35   0.02   0.23
    23   1    -0.12   0.21  -0.15     0.01  -0.01   0.01    -0.17  -0.32  -0.16
    24   1    -0.00   0.00  -0.00     0.11  -0.06   0.02    -0.01   0.00  -0.00
    25   1     0.00  -0.00  -0.00    -0.02   0.03   0.02     0.00  -0.01  -0.00
    26   1     0.00  -0.00  -0.00     0.03   0.02   0.02    -0.00  -0.00  -0.00
    27   1    -0.00  -0.00  -0.00    -0.23   0.08  -0.38    -0.00  -0.01   0.00
    28   1     0.00   0.00   0.00    -0.10   0.24   0.37     0.00  -0.00  -0.00
    29   1    -0.00   0.00  -0.01    -0.11   0.13  -0.41     0.00  -0.00   0.00
    30   1    -0.00   0.00   0.00    -0.19   0.14   0.32    -0.00  -0.00  -0.00
    31   1     0.07  -0.11   0.08     0.01  -0.02   0.02     0.24  -0.35   0.26
                     46                     47                     48
                      A                      A                      A
 Frequencies --   1067.1004              1080.6777              1118.8245
 Red. masses --      1.6494                 1.5792                 3.7523
 Frc consts  --      1.1066                 1.0866                 2.7674
 IR Inten    --      3.3380                25.9322               145.7792
  Atom  AN      X      Y      Z        X      Y      Z        X      Y      Z
     1   6    -0.01  -0.03   0.03    -0.00   0.00   0.00     0.01   0.01   0.01
     2   6     0.03  -0.01  -0.07     0.00  -0.00  -0.00    -0.02   0.00   0.02
     3   6     0.06   0.03   0.01     0.00   0.00  -0.00     0.01  -0.01  -0.02
     4   6    -0.02   0.04   0.06    -0.00   0.00   0.00     0.01   0.01   0.00
     5   6    -0.00  -0.04  -0.01     0.00  -0.00  -0.00    -0.02  -0.01   0.01
     6   6    -0.00  -0.00  -0.00    -0.10  -0.12   0.01     0.00  -0.02   0.02
     7   6    -0.00  -0.00  -0.00    -0.00   0.01   0.02     0.01  -0.02  -0.10
     8   6    -0.00   0.00   0.00    -0.03  -0.03  -0.00    -0.05   0.03  -0.06
     9   6     0.00   0.00  -0.00     0.11   0.10  -0.01     0.00   0.01  -0.01
    10   6    -0.00   0.00  -0.00    -0.03  -0.03   0.01    -0.07   0.06   0.05
    11   6     0.00  -0.00   0.00    -0.00   0.01  -0.02     0.02  -0.00   0.12
    12   6     0.00   0.00   0.00    -0.01   0.01  -0.00     0.23  -0.20   0.02
    13   8    -0.00  -0.00  -0.01     0.00   0.00   0.00    -0.02   0.09   0.15
    14   8    -0.01  -0.01   0.01     0.00   0.00  -0.00     0.02   0.10  -0.14
    15  16     0.01  -0.00   0.00    -0.00  -0.00  -0.00    -0.03  -0.08  -0.01
    16   6    -0.03   0.05  -0.04     0.00  -0.00  -0.00     0.02   0.01  -0.01
    17   6     0.08  -0.12   0.10     0.00   0.00  -0.00    -0.00  -0.01   0.00
    18   7    -0.02   0.04  -0.04     0.00   0.00   0.00     0.01   0.02   0.00
    19   1    -0.22   0.08  -0.03    -0.00  -0.00   0.00     0.06   0.03  -0.01
    20   1    -0.03  -0.19  -0.11    -0.00  -0.00  -0.00    -0.04  -0.03  -0.00
    21   1     0.05   0.07  -0.02     0.00  -0.00  -0.00     0.04  -0.05  -0.10
    22   1    -0.14  -0.05   0.16    -0.00  -0.00   0.00     0.08   0.03  -0.02
    23   1    -0.15  -0.04  -0.16    -0.00  -0.00  -0.00    -0.09  -0.08  -0.05
[...]
     5   6    -0.00   0.00   0.00    -0.04   0.00   0.04    -0.00   0.00   0.00
     6   6    -0.00  -0.00  -0.00     0.00   0.00   0.00     0.00   0.00  -0.00
     7   6     0.01  -0.01  -0.01    -0.00   0.00   0.00     0.03  -0.04  -0.07
     8   6    -0.00   0.00  -0.00     0.00  -0.00   0.00    -0.01   0.01  -0.02
     9   6     0.00  -0.00   0.00    -0.00   0.00  -0.00    -0.00   0.00   0.00
    10   6     0.01  -0.01  -0.02    -0.00   0.00   0.00    -0.00   0.00   0.00
    11   6    -0.03   0.02  -0.08     0.00  -0.00   0.00     0.00  -0.00   0.01
    12   6    -0.00   0.00   0.00     0.00   0.00  -0.00     0.00  -0.00   0.00
    13   8     0.00  -0.00   0.00     0.00   0.00   0.00     0.00  -0.00   0.00
    14   8    -0.00   0.00   0.00     0.00   0.00  -0.00    -0.00   0.00  -0.00
    15  16    -0.00   0.00  -0.00    -0.00  -0.00  -0.00     0.00  -0.00  -0.00
    16   6    -0.00  -0.00  -0.00    -0.00  -0.00  -0.00    -0.00  -0.00   0.00
    17   6    -0.00   0.00   0.00    -0.00  -0.00   0.00     0.00  -0.00  -0.00
    18   7     0.00  -0.00   0.00     0.00  -0.00  -0.00    -0.00   0.00   0.00
    19   1     0.00   0.00   0.00     0.01   0.07   0.08     0.00   0.00   0.00
    20   1    -0.00   0.00   0.00    -0.22   0.03   0.22    -0.00   0.00   0.00
    21   1    -0.00  -0.00  -0.00    -0.31  -0.20  -0.03    -0.00  -0.00  -0.00
    22   1    -0.00  -0.01  -0.01    -0.07  -0.36  -0.44    -0.00  -0.00  -0.01
    23   1     0.01  -0.00  -0.01     0.47  -0.05  -0.44     0.01  -0.00  -0.00
    24   1    -0.00   0.00   0.00     0.00  -0.00  -0.00     0.00  -0.00  -0.00
    25   1    -0.00   0.00  -0.00     0.00  -0.00   0.00     0.00  -0.00  -0.00
    26   1    -0.00   0.00  -0.00     0.00  -0.00   0.00     0.00  -0.00   0.00
    27   1    -0.06   0.07   0.12     0.01  -0.01  -0.01    -0.37   0.42   0.78
    28   1     0.00  -0.00   0.01    -0.00   0.00  -0.00     0.08  -0.06   0.21
    29   1    -0.10   0.11   0.21     0.00  -0.00  -0.00     0.02  -0.03  -0.05
    30   1     0.32  -0.23   0.86    -0.00   0.00  -0.01    -0.05   0.03  -0.12
    31   1    -0.00  -0.00  -0.00     0.00   0.00   0.00     0.00   0.00   0.00

 -------------------
 - Thermochemistry -
 -------------------
 Temperature   263.150 Kelvin.  Pressure   1.00000 Atm.
 Atom     1 has atomic number  6 and mass  12.00000
 Atom     2 has atomic number  6 and mass  12.00000
 Atom     3 has atomic number  6 and mass  12.00000
 Atom     4 has atomic number  6 and mass  12.00000
 Atom     5 has atomic number  6 and mass  12.00000
 Atom     6 has atomic number  6 and mass  12.00000
 Atom     7 has atomic number  6 and mass  12.00000
 Atom     8 has atomic number  6 and mass  12.00000
 Atom     9 has atomic number  6 and mass  12.00000
 Atom    10 has atomic number  6 and mass  12.00000
 Atom    11 has atomic number  6 and mass  12.00000
 Atom    12 has atomic number  6 and mass  12.00000
 Atom    13 has atomic number  8 and mass  15.99491
 Atom    14 has atomic number  8 and mass  15.99491
 Atom    15 has atomic number 16 and mass  31.97207
 Atom    16 has atomic number  6 and mass  12.00000
 Atom    17 has atomic number  6 and mass  12.00000
 Atom    18 has atomic number  7 and mass  14.00307
 Atom    19 has atomic number  1 and mass   1.00783
 Atom    20 has atomic number  1 and mass   1.00783
 Atom    21 has atomic number  1 and mass   1.00783
 Atom    22 has atomic number  1 and mass   1.00783
 Atom    23 has atomic number  1 and mass   1.00783
 Atom    24 has atomic number  1 and mass   1.00783
 Atom    25 has atomic number  1 and mass   1.00783
 Atom    26 has atomic number  1 and mass   1.00783
 Atom    27 has atomic number  1 and mass   1.00783
 Atom    28 has atomic number  1 and mass   1.00783
 Atom    29 has atomic number  1 and mass   1.00783
 Atom    30 has atomic number  1 and mass   1.00783
 Atom    31 has atomic number  1 and mass   1.00783
 Molecular mass:   259.06670 amu.
 Principal axes and moments of inertia in atomic units:
                           1         2         3
     Eigenvalues --  2656.485619698.03159**********
           X            0.99992  -0.01300  -0.00000
           Y            0.01300   0.99967   0.02209
           Z           -0.00028  -0.02209   0.99976
 This molecule is an asymmetric top.
 Rotational symmetry number  1.
 Warning -- assumption of classical behavior for rotation
           may cause significant error
 Rotational temperatures (Kelvin)      0.03260     0.00893     0.00800
 Rotational constants (GHZ):           0.67937     0.18609     0.16679
 Zero-point vibrational energy     642208.9 (Joules/Mol)
                                  153.49160 (Kcal/Mol)
 Warning -- explicit consideration of  22 degrees of freedom as
           vibrations may cause significant error
 Vibrational temperatures:     30.10    38.58    49.89    62.67   122.75
          (Kelvin)            147.50   169.96   233.52   296.67   330.46
                              409.41   418.52   448.85   476.27   544.21
                              593.15   601.67   602.31   696.57   712.38
                              766.33   787.50   808.17   904.14   914.36
                              937.41   990.50  1021.92  1042.07  1132.92
                             1151.88  1201.42  1211.81  1250.47  1266.81
                             1280.89  1394.19  1428.02  1445.05  1457.62
                             1476.68  1484.02  1494.01  1500.90  1534.88
                             1535.32  1554.85  1609.74  1624.30  1664.46
                             1693.03  1729.73  1752.37  1764.91  1805.40
                             1830.32  1928.22  1940.18  1953.69  1959.91
                             1981.36  2068.31  2079.77  2101.38  2176.24
                             2179.88  2183.37  2244.47  2244.81  2392.83
                             2395.38  2431.93  2433.38  2457.45  4418.77
                             4502.00  4521.48  4555.40  4630.84  4636.30
                             4637.85  4639.98  4654.50  4666.37  4674.91
                             4675.86  4679.28
 
 Zero-point correction=                           0.244604 (Hartree/Particle)
 Thermal correction to Energy=                    0.257388
 Thermal correction to Enthalpy=                  0.258221
 Thermal correction to Gibbs Free Energy=         0.205216
 Sum of electronic and zero-point Energies=          -1144.143283
 Sum of electronic and thermal Energies=             -1144.130500
 Sum of electronic and thermal Enthalpies=           -1144.129666
 Sum of electronic and thermal Free Energies=        -1144.182671
 
                     E (Thermal)             CV                S
                      KCal/Mol        Cal/Mol-Kelvin    Cal/Mol-Kelvin
 Total                  161.513             53.676            126.396
 Electronic               0.000              0.000              0.000
 Translational            0.784              2.981             41.935
 Rotational               0.784              2.981             33.616
 Vibrational            159.944             47.715             50.845
 Vibration     1          0.524              1.985              6.297
 Vibration     2          0.524              1.984              5.804
 Vibration     3          0.524              1.981              5.295
 Vibration     4          0.525              1.978              4.843
 Vibration     5          0.532              1.952              3.521
 Vibration     6          0.537              1.936              3.163
 Vibration     7          0.541              1.920              2.890
 Vibration     8          0.557              1.862              2.289
 Vibration     9          0.577              1.789              1.851
 Vibration    10          0.590              1.745              1.660
 Vibration    11          0.624              1.631              1.298
 Vibration    12          0.629              1.616              1.262
 Vibration    13          0.644              1.568              1.151
 Vibration    14          0.658              1.523              1.059
 Vibration    15          0.697              1.408              0.863
 Vibration    16          0.728              1.323              0.746
 Vibration    17          0.733              1.308              0.727
 Vibration    18          0.733              1.307              0.726
 Vibration    19          0.798              1.143              0.547
 Vibration    20          0.809              1.116              0.522
 Vibration    21          0.849              1.024              0.444
 Vibration    22          0.865              0.989              0.416
                       Q            Log10(Q)             Ln(Q)
 Total Bot       0.112873-106       -106.947409       -246.255509
 Total V=0       0.336525D+21         20.527018         47.265205
 Vib (Bot)       0.189882-121       -121.721516       -280.274149
 Vib (Bot)    1  0.873735D+01          0.941380          2.167607
 Vib (Bot)    2  0.681395D+01          0.833399          1.918972
 Vib (Bot)    3  0.526675D+01          0.721543          1.661414
 Vib (Bot)    4  0.418883D+01          0.622093          1.432422
 Vib (Bot)    5  0.212451D+01          0.327258          0.753539
 Vib (Bot)    6  0.176097D+01          0.245753          0.565867
 Vib (Bot)    7  0.152175D+01          0.182343          0.419859
 Vib (Bot)    8  0.109074D+01          0.037721          0.086857
 Vib (Bot)    9  0.841716D+00         -0.074835         -0.172313
 Vib (Bot)   10  0.746307D+00         -0.127083         -0.292619
 Vib (Bot)   11  0.582237D+00         -0.234900         -0.540877
 Vib (Bot)   12  0.567082D+00         -0.246354         -0.567251
 Vib (Bot)   13  0.520800D+00         -0.283329         -0.652389
 Vib (Bot)   14  0.483747D+00         -0.315382         -0.726194
 Vib (Bot)   15  0.407032D+00         -0.390372         -0.898864
 Vib (Bot)   16  0.361995D+00         -0.441297         -1.016124
 Vib (Bot)   17  0.354856D+00         -0.449948         -1.036044
 Vib (Bot)   18  0.354330D+00         -0.450592         -1.037527
 Vib (Bot)   19  0.286497D+00         -0.542880         -1.250027
 Vib (Bot)   20  0.276789D+00         -0.557852         -1.284501
 Vib (Bot)   21  0.246551D+00         -0.608094         -1.400187
 Vib (Bot)   22  0.235784D+00         -0.627486         -1.444840
 Vib (V=0)       0.566122D+06          5.752910         13.246565
 Vib (V=0)    1  0.925164D+01          0.966219          2.224801
 Vib (V=0)    2  0.733227D+01          0.865239          1.992285
 Vib (V=0)    3  0.579043D+01          0.762711          1.756207
 Vib (V=0)    4  0.471857D+01          0.673810          1.551506
 Vib (V=0)    5  0.268255D+01          0.428548          0.986768
 Vib (V=0)    6  0.233058D+01          0.367464          0.846118
 Vib (V=0)    7  0.210178D+01          0.322588          0.742787
 Vib (V=0)    8  0.169988D+01          0.230418          0.530558
 Vib (V=0)    9  0.147902D+01          0.169975          0.391381
 Vib (V=0)   10  0.139832D+01          0.145606          0.335269
 Vib (V=0)   11  0.126746D+01          0.102935          0.237018
 Vib (V=0)   12  0.125603D+01          0.099000          0.227957
 Vib (V=0)   13  0.122196D+01          0.087059          0.200460
 Vib (V=0)   14  0.119571D+01          0.077625          0.178739
 Vib (V=0)   15  0.114473D+01          0.058703          0.135168
 Vib (V=0)   16  0.111728D+01          0.048164          0.110902
 Vib (V=0)   17  0.111313D+01          0.046544          0.107172
 Vib (V=0)   18  0.111282D+01          0.046425          0.106898
 Vib (V=0)   19  0.107626D+01          0.031919          0.073496
 Vib (V=0)   20  0.107150D+01          0.029992          0.069059
 Vib (V=0)   21  0.105748D+01          0.024273          0.055892
 Vib (V=0)   22  0.105281D+01          0.022348          0.051459
 Electronic      0.100000D+01          0.000000          0.000000
 Translational   0.119948D+09          8.078993         18.602568
 Rotational      0.495582D+07          6.695115         15.416072
 ***** Axes restored to original set *****
 -------------------------------------------------------------------
 Center     Atomic                   Forces (Hartrees/Bohr)
 Number     Number              X              Y              Z
 -------------------------------------------------------------------
      1        6          -0.000002271   -0.000002434   -0.000003435
      2        6           0.000006025   -0.000000798   -0.000007634
      3        6           0.000008515    0.000011312    0.000003952
      4        6          -0.000000311    0.000007176    0.000012550
      5        6          -0.000003426    0.000008721    0.000015818
      6        6          -0.000000040   -0.000012329   -0.000002210
      7        6          -0.000006627   -0.000000212   -0.000014326
      8        6           0.000003295    0.000001947   -0.000007921
      9        6          -0.000012390    0.000006894   -0.000008755
     10        6           0.000011626   -0.000000683    0.000024130
     11        6          -0.000005458    0.000012547   -0.000000499
     12        6           0.000009405   -0.000024755   -0.000010038
     13        8          -0.000000234    0.000018903    0.000073265
     14        8           0.000021279    0.000053313   -0.000084460
     15       16          -0.000044036   -0.000101222   -0.000001576
     16        6           0.000007538   -0.000002256   -0.000013243
     17        6          -0.000018669    0.000016758    0.000006716
     18        7           0.000040633   -0.000005500    0.000012092
     19        1          -0.000001254    0.000001048   -0.000002990
     20        1           0.000005086    0.000006527    0.000000789
     21        1           0.000003409    0.000004540    0.000001602
     22        1           0.000000046    0.000003311    0.000004978
     23        1          -0.000007252   -0.000001696    0.000000273
     24        1          -0.000003465    0.000000827    0.000002490
     25        1          -0.000005002   -0.000004511    0.000000249
     26        1          -0.000002538    0.000001041    0.000000587
     27        1          -0.000004672    0.000009492   -0.000004127
     28        1          -0.000001842    0.000006485   -0.000002564
     29        1          -0.000003115   -0.000003945    0.000000674
     30        1           0.000003318   -0.000005846    0.000004446
     31        1           0.000002427   -0.000004655   -0.000000836
 -------------------------------------------------------------------
 Cartesian Forces:  Max     0.000101222 RMS     0.000019402
 FormGI is forming the generalized inverse of G from B-inverse, IUseBI=4.

 ----------------------------------------------------------------------

 Electric dipole moment (input orientation):
 (Debye = 10**-18 statcoulomb cm , SI units = C m)
                  (au)            (Debye)         (10**-30 SI)
   Tot        0.293086D+01      0.744950D+01      0.248489D+02
   x         -0.609467D+00     -0.154911D+01     -0.516728D+01
   y         -0.280332D+01     -0.712533D+01     -0.237675D+02
   z          0.599901D+00      0.152480D+01      0.508617D+01

 Dipole polarizability, Alpha (input orientation).
 (esu units = cm**3 , SI units = C**2 m**2 J**-1)
 Alpha(0;0):
               (au)            (10**-24 esu)      (10**-40 SI)
   iso        0.219724D+03      0.325597D+02      0.362276D+02
   aniso      0.114797D+03      0.170111D+02      0.189274D+02
   xx         0.285425D+03      0.422956D+02      0.470602D+02
   yx         0.109355D+01      0.162048D+00      0.180303D+00
   yy         0.169261D+03      0.250819D+02      0.279073D+02
   zx        -0.178971D+02     -0.265207D+01     -0.295083D+01
   zy         0.228816D+02      0.339071D+01      0.377267D+01
   zz         0.204486D+03      0.303017D+02      0.337152D+02

 ----------------------------------------------------------------------

 Dipole orientation:
     6         -6.64819858          3.15945956          2.05426236
     6         -8.62125453          2.83448793          3.75913282
     6         -9.10905838          0.44647551          4.75189885
     6         -7.62893213         -1.62064017          4.04307766
     6         -5.66032340         -1.30361298          2.34219886
     6         10.04985343         -2.33221176          2.53129692
     6          4.82702436          1.58021218         -0.50306558
     6          6.97673610          0.90818207          0.84882931
     6          7.68779876         -1.62228212          1.11059457
     6          6.18775837         -3.48624114         -0.01809453
     6          4.03743790         -2.85299391         -1.37967289
     6          3.37685445         -0.31395353         -1.60818954
     8          0.64151973          3.22742444         -3.79424815
     8          0.29853078         -1.22517373         -5.42750617
    16          0.61102468          0.50556352         -3.30419610
     6         -5.15824615          1.09568617          1.33796355
     6         -3.09774279          1.51187931         -0.45228941
     7         -1.65183271         -0.28965552         -1.19134775
     1         -6.25772817          5.01760429          1.27228687
     1         -9.77405442          4.43779146          4.31124164
     1        -10.64870479          0.18924712          6.08334129
     1         -8.01895474         -3.47714181          4.82227357
     1         -4.49589525         -2.89280367          1.77359967
     1          9.83201091         -4.15165855          3.48758611
     1         11.65183770         -2.50154106          1.22872415
     1         10.53889466         -0.90417082          3.94242948
     1          4.28394542          3.54576315         -0.70727490
     1          8.12066421          2.37705114          1.71331790
     1          6.71490602         -5.46116765          0.17003225
     1          2.89186234         -4.30659419         -2.26133051
     1         -2.82618512          3.44612804         -1.13791053

 Electric dipole moment (dipole orientation):
 (Debye = 10**-18 statcoulomb cm , SI units = C m)
                  (au)            (Debye)         (10**-30 SI)
   Tot        0.293086D+01      0.744950D+01      0.248489D+02
   x          0.000000D+00      0.000000D+00      0.000000D+00
   y          0.000000D+00      0.000000D+00      0.000000D+00
   z          0.293086D+01      0.744950D+01      0.248489D+02

 Dipole polarizability, Alpha (dipole orientation).
 (esu units = cm**3 , SI units = C**2 m**2 J**-1)
 Alpha(0;0):
               (au)            (10**-24 esu)      (10**-40 SI)
   iso        0.219724D+03      0.325597D+02      0.362276D+02
   aniso      0.114797D+03      0.170111D+02      0.189274D+02
   xx         0.269663D+03      0.399599D+02      0.444614D+02
   yx        -0.295592D+02     -0.438022D+01     -0.487365D+01
   yy         0.220750D+03      0.327118D+02      0.363967D+02
   zx        -0.308429D+02     -0.457044D+01     -0.508530D+01
   zy        -0.463969D+01     -0.687531D+00     -0.764982D+00
   zz         0.168759D+03      0.250075D+02      0.278246D+02

 ----------------------------------------------------------------------

 This type of calculation cannot be archived.


      HUMANKIND PERIODICALLY GOES THROUGH A SPEEDUP OF ITS AFFAIRS, 
      THEREBY EXPERIENCING THE RACE BETWEEN THE RENEWABLE VITALITY
      OF THE LIVING, AND THE BECKONING VITIATION OF DECADENCE.
      IN THIS PERIODIC RACE, ANY PAUSE BECOMES A LUXURY.
      ONLY THEN CAN ONE REFLECT THAT ALL IS PERMITTED;
      ALL IS POSSIBLE.

                              -- THE APOCRYPHA OF MUAD'DIB
                                 CHILDREN OF DUNE, BY FRANK HERBERT
 Job cpu time:       0 days  0 hours  0 minutes  1.5 seconds.
 Elapsed time:       0 days  0 hours  0 minutes  0.4 seconds.
 File lengths (MBytes):  RWF=      6 Int=      0 D2E=      0 Chk=      3 Scr=      1
 Normal termination of Gaussian 16 at Sat Apr  4 18:50:32 2020.
