 Entering Gaussian System, Link 0=g16
 Initial command:
 /apps/cent7/gaussian/g16-A.03/g16-haswell/g16/l1.exe "/scratch/brown/finej/0051_imine_mechanism/ts_631gd/acyclic_complete/new_logs_2/Gau-245274.inp" -scrdir="/scratch/brown/finej/0051_imine_mechanism/ts_631gd/acyclic_complete/new_logs_2/"
 Entering Link 1 = /apps/cent7/gaussian/g16-A.03/g16-haswell/g16/l1.exe PID=    245275.
  
 Copyright (c) 1988,1990,1992,1993,1995,1998,2003,2009,2016,
            Gaussian, Inc.  All Rights Reserved.
  
 This is part of the Gaussian(R) 16 program.  It is based on
 the Gaussian(R) 09 system (copyright 2009, Gaussian, Inc.),
 the Gaussian(R) 03 system (copyright 2003, Gaussian, Inc.),
 the Gaussian(R) 98 system (copyright 1998, Gaussian, Inc.),
 the Gaussian(R) 94 system (copyright 1995, Gaussian, Inc.),
 the Gaussian 92(TM) system (copyright 1992, Gaussian, Inc.),
 the Gaussian 90(TM) system (copyright 1990, Gaussian, Inc.),
 the Gaussian 88(TM) system (copyright 1988, Gaussian, Inc.),
 the Gaussian 86(TM) system (copyright 1986, Carnegie Mellon
 University), and the Gaussian 82(TM) system (copyright 1983,
 Carnegie Mellon University). Gaussian is a federally registered
 trademark of Gaussian, Inc.
  
 This software contains proprietary and confidential information,
 including trade secrets, belonging to Gaussian, Inc.
  
 This software is provided under written license and may be
 used, copied, transmitted, or stored only in accord with that
 written license.
  
 The following legend is applicable only to US Government
 contracts under FAR:
  
                    RESTRICTED RIGHTS LEGEND
  
 Use, reproduction and disclosure by the US Government is
 subject to restrictions as set forth in subparagraphs (a)
 and (c) of the Commercial Computer Software - Restricted
 Rights clause in FAR 52.227-19.
  
 Gaussian, Inc.
 340 Quinnipiac St., Bldg. 40, Wallingford CT 06492
  
  
 ---------------------------------------------------------------
 Warning -- This program may not be used in any manner that
 competes with the business of Gaussian, Inc. or will provide
 assistance to any competitor of Gaussian, Inc.  The licensee
 of this program is prohibited from giving any competitor of
 Gaussian, Inc. access to this program.  By using this program,
 the user acknowledges that Gaussian, Inc. is engaged in the
 business of creating and licensing software in the field of
 computational chemistry and represents and warrants to the
 licensee that it is not a competitor of Gaussian, Inc. and that
 it will not use this program in any manner prohibited above.
 ---------------------------------------------------------------
  

 Cite this work as:
 Gaussian 16, Revision A.03,
 M. J. Frisch, G. W. Trucks, H. B. Schlegel, G. E. Scuseria, 
 M. A. Robb, J. R. Cheeseman, G. Scalmani, V. Barone, 
 G. A. Petersson, H. Nakatsuji, X. Li, M. Caricato, A. V. Marenich, 
 J. Bloino, B. G. Janesko, R. Gomperts, B. Mennucci, H. P. Hratchian, 
 J. V. Ortiz, A. F. Izmaylov, J. L. Sonnenberg, D. Williams-Young, 
 F. Ding, F. Lipparini, F. Egidi, J. Goings, B. Peng, A. Petrone, 
 T. Henderson, D. Ranasinghe, V. G. Zakrzewski, J. Gao, N. Rega, 
 G. Zheng, W. Liang, M. Hada, M. Ehara, K. Toyota, R. Fukuda, 
 J. Hasegawa, M. Ishida, T. Nakajima, Y. Honda, O. Kitao, H. Nakai, 
 T. Vreven, K. Throssell, J. A. Montgomery, Jr., J. E. Peralta, 
 F. Ogliaro, M. J. Bearpark, J. J. Heyd, E. N. Brothers, K. N. Kudin, 
 V. N. Staroverov, T. A. Keith, R. Kobayashi, J. Normand, 
 K. Raghavachari, A. P. Rendell, J. C. Burant, S. S. Iyengar, 
 J. Tomasi, M. Cossi, J. M. Millam, M. Klene, C. Adamo, R. Cammi, 
 J. W. Ochterski, R. L. Martin, K. Morokuma, O. Farkas, 
 J. B. Foresman, and D. J. Fox, Gaussian, Inc., Wallingford CT, 2016.
 
 ******************************************
 Gaussian 16:  ES64L-G16RevA.03 25-Dec-2016
                 4-Apr-2020 
 ******************************************
 %nprocshared=4
 Will use up to    4 processors via shared memory.
 %mem=1GB
 %oldchk=chk/acyclic_5.chk
 Copying data from "chk/acyclic_5.chk" to current chk file "/scratch/brown/finej/0051_imine_mechanism/ts_631gd/acyclic_complete/new_logs_2/Gau-245275.chk"
 IOpt=  2 FromEx=T IUOpen= 4 IOptOp= 5 NList=   0 IFRang= 0 IUIn= 4 IUOut= 2.
 ----------------------------------------------------------------------
 # freq=readfc wb97xd/6-31g(d) scrf=solvent=dichloromethane geom=check 
 temperature=263.15
 ----------------------------------------------------------------------
 1/29=2,38=1,112=263150,172=1/1;
 2/12=2,40=1/2;
 7/8=1,25=11/16;
 99/5=2/99;
 -----------------------------
 Oxazaphosphetine Intermediate
 -----------------------------
 Structure from the checkpoint file:  "/scratch/brown/finej/0051_imine_mechanism/ts_631gd/acyclic_complete/new_logs_2/Gau-245275.chk"
 Charge =  0 Multiplicity = 1
 Redundant internal coordinates found in file.  (old form).
 C,0,-3.4064801543,1.3204003184,-2.1793419889
 C,0,-4.3906454242,2.3051031011,-2.118992646
 C,0,-4.7886973051,2.816156857,-0.8878757668
 C,0,-4.1978857125,2.3434282556,0.28363357
 C,0,-3.2146865702,1.3635963872,0.2230951385
 C,0,-2.8162449029,0.8445570614,-1.0112783426
 C,0,-1.7473551803,-0.2339245382,-1.0947284312
 O,0,-2.9850161327,-3.5749507302,0.2696417579
 O,0,-3.4682083745,-2.4767424721,-1.9511818228
 S,0,-3.2740124098,-2.3724459212,-0.5065447487
 N,0,-2.009855519,-1.3329921137,-0.149385629
 C,0,-0.1105513858,3.6102121718,0.48706217
 C,0,-0.1270377169,4.9935295973,0.6520902427
 C,0,1.0502898072,5.6801229277,0.9330827043
 C,0,2.2495731639,4.9785026531,1.0487652619
 C,0,2.2682038147,3.5980279956,0.8865576465
 O,0,2.0637999741,0.7895619849,1.2108668822
 C,0,1.0869907353,2.9073585018,0.6082142977
 C,0,1.1427884987,1.4162196499,0.3616975263
 O,0,-0.170663452,0.8535890685,0.4439493047
 C,0,-0.3909198517,0.317316888,-0.7871793959
 N,0,0.5919549746,0.352818362,-1.6017276999
 C,0,2.0163708383,-1.7585674083,-0.2331707747
 N,0,1.6559112738,0.9646411375,-0.9141856775
 C,0,3.9921739661,-0.7834656959,1.4851135963
 C,0,4.2240567666,0.1431272862,-1.1430883882
 P,0,2.8938864804,-0.1916823816,0.0894130107
 C,0,2.049029748,-2.4180373839,-1.4611444696
 C,0,1.3119882271,-3.5852412133,-1.6458826529
 C,0,0.5341163249,-4.0948143459,-0.6103024505
 C,0,0.504245265,-3.4422477518,0.6219535988
 C,0,1.2425897793,-2.2769436939,0.8103263009
 C,0,4.5629914133,-2.0598627078,1.414976036
 C,0,5.4446731481,-2.5050811562,2.3946048452
 C,0,5.7773482581,-1.6754830658,3.463076864
 C,0,5.2220123585,-0.4020083649,3.5429793528
 C,0,4.3364447889,0.0403458752,2.5620019291
 C,0,3.8820092871,0.3130830402,-2.4933279649
 C,0,4.8680585558,0.4956918122,-3.4545750543
 C,0,6.2088312393,0.5605386515,-3.0792449602
 C,0,6.5567557503,0.4301880139,-1.7394920907
 C,0,5.5732019535,0.2102294003,-0.7777834292
 H,0,-3.1049466327,0.9127073598,-3.1405808975
 H,0,-4.849298024,2.6657000908,-3.0346276481
 H,0,-5.5608742274,3.5780410806,-0.8384087501
 H,0,-4.5109287745,2.7328073605,1.2476571599
 H,0,-1.690177048,-0.6055503027,-2.1238203223
 H,0,-1.1854047594,-1.9092349236,0.0260457381
 H,0,-1.0321670256,3.080095638,0.2710252547
 H,0,-1.0650841595,5.532664671,0.5600682423
 H,0,1.0358470302,6.7582730561,1.0614067154
 H,0,3.1721101216,5.5076702455,1.2674817937
 H,0,3.2037821945,3.0544513016,0.9761171796
 H,0,2.6445680063,-2.0269618372,-2.2791634628
 H,0,1.3418151463,-4.0918995286,-2.6051438622
 H,0,-0.051869199,-4.9958222921,-0.7594300813
 H,0,-0.103777631,-3.8337506968,1.4312093192
 H,0,1.2123933281,-1.768083988,1.7694948009
 H,0,4.321478305,-2.7191765999,0.5856511307
 H,0,5.8718860694,-3.5007972431,2.3225378659
 H,0,6.4653090097,-2.0208903942,4.2289843246
 H,0,5.4748499098,0.2520715617,4.372254043
 H,0,3.9094032672,1.0338716216,2.6406269046
 H,0,2.8410955402,0.3096735414,-2.7953395837
 H,0,4.5865581282,0.6056225079,-4.4971341959
 H,0,6.9772474427,0.7211856459,-3.8293289983
 H,0,7.5968101915,0.4939511391,-1.4354175881
 H,0,5.8695003982,0.1004389363,0.2581327789
 H,0,-2.767341247,0.979849173,1.1338909699
 C,0,-4.6807583923,-1.5445025577,0.179371303
 C,0,-5.6199421269,-0.9698703186,-0.6686982733
 C,0,-4.7840646615,-1.4261041811,1.5626989802
 C,0,-6.6705561552,-0.2489584374,-0.116201061
 H,0,-5.5149565054,-1.0683623671,-1.7428412576
 C,0,-5.8408764439,-0.7025171918,2.0966417147
 H,0,-4.0431920088,-1.883103191,2.2104415657
 C,0,-6.7893148729,-0.0935990311,1.2671861405
 H,0,-7.4016133707,0.2135057023,-0.7729995589
 H,0,-5.9271022841,-0.6013464491,3.1747441668
 C,0,-7.8953179156,0.7469579996,1.8486110523
 H,0,-8.814737256,0.6567047295,1.2628686059
 H,0,-8.1134111221,0.4649286495,2.8823095955
 H,0,-7.606344808,1.8048238104,1.8460358148
 Recover connectivity data from disk.
                           ----------------------------
                           !    Current Parameters    !
                           ! (Angstroms and Degrees)  !
 --------------------------                            --------------------------
 ! Name  Definition              Value          Derivative Info.                !
 --------------------------------------------------------------------------------
 ! R1    R(1,2)                  1.3935         estimate D2E/DX2                !
 ! R2    R(1,6)                  1.3925         estimate D2E/DX2                !
 ! R3    R(1,43)                 1.0868         estimate D2E/DX2                !
 ! R4    R(2,3)                  1.3911         estimate D2E/DX2                !
 ! R5    R(2,44)                 1.0857         estimate D2E/DX2                !
 ! R6    R(3,4)                  1.3946         estimate D2E/DX2                !
 ! R7    R(3,45)                 1.0859         estimate D2E/DX2                !
 ! R8    R(4,5)                  1.3894         estimate D2E/DX2                !
 ! R9    R(4,46)                 1.0858         estimate D2E/DX2                !
 ! R10   R(5,6)                  1.3971         estimate D2E/DX2                !
 ! R11   R(5,69)                 1.0849         estimate D2E/DX2                !
 ! R12   R(6,7)                  1.5207         estimate D2E/DX2                !
 ! R13   R(7,11)                 1.4733         estimate D2E/DX2                !
 ! R14   R(7,21)                 1.4961         estimate D2E/DX2                !
 ! R15   R(7,47)                 1.0956         estimate D2E/DX2                !
 ! R16   R(8,10)                 1.4601         estimate D2E/DX2                !
 ! R17   R(9,10)                 1.4614         estimate D2E/DX2                !
 ! R18   R(10,11)                1.6751         estimate D2E/DX2                !
 ! R19   R(10,70)                1.7706         estimate D2E/DX2                !
 ! R20   R(11,48)                1.0211         estimate D2E/DX2                !
 ! R21   R(12,13)                1.3932         estimate D2E/DX2                !
 ! R22   R(12,18)                1.3938         estimate D2E/DX2                !
 ! R23   R(12,49)                1.0849         estimate D2E/DX2                !
 ! R24   R(13,14)                1.3916         estimate D2E/DX2                !
 ! R25   R(13,50)                1.0858         estimate D2E/DX2                !
 ! R26   R(14,15)                1.3943         estimate D2E/DX2                !
 ! R27   R(14,51)                1.0859         estimate D2E/DX2                !
 ! R28   R(15,16)                1.3901         estimate D2E/DX2                !
 ! R29   R(15,52)                1.0858         estimate D2E/DX2                !
 ! R30   R(16,18)                1.3963         estimate D2E/DX2                !
 ! R31   R(16,53)                1.0857         estimate D2E/DX2                !
 ! R32   R(17,19)                1.4007         estimate D2E/DX2                !
 ! R33   R(17,27)                1.7057         estimate D2E/DX2                !
 ! R34   R(18,19)                1.5124         estimate D2E/DX2                !
 ! R35   R(19,20)                1.4312         estimate D2E/DX2                !
 ! R36   R(19,24)                1.4474         estimate D2E/DX2                !
 ! R37   R(20,21)                1.3608         estimate D2E/DX2                !
 ! R38   R(21,22)                1.277          estimate D2E/DX2                !
 ! R39   R(22,24)                1.4068         estimate D2E/DX2                !
 ! R40   R(23,27)                1.8246         estimate D2E/DX2                !
 ! R41   R(23,28)                1.3942         estimate D2E/DX2                !
 ! R42   R(23,32)                1.3987         estimate D2E/DX2                !
 ! R43   R(24,27)                1.969          estimate D2E/DX2                !
 ! R44   R(25,27)                1.872          estimate D2E/DX2                !
 ! R45   R(25,33)                1.4            estimate D2E/DX2                !
 ! R46   R(25,37)                1.3989         estimate D2E/DX2                !
 ! R47   R(26,27)                1.844          estimate D2E/DX2                !
 ! R48   R(26,38)                1.4032         estimate D2E/DX2                !
 ! R49   R(26,42)                1.3993         estimate D2E/DX2                !
 ! R50   R(28,29)                1.3927         estimate D2E/DX2                !
 ! R51   R(28,54)                1.0848         estimate D2E/DX2                !
 ! R52   R(29,30)                1.3918         estimate D2E/DX2                !
 ! R53   R(29,55)                1.0853         estimate D2E/DX2                !
 ! R54   R(30,31)                1.3947         estimate D2E/DX2                !
 ! R55   R(30,56)                1.0851         estimate D2E/DX2                !
 ! R56   R(31,32)                1.3923         estimate D2E/DX2                !
 ! R57   R(31,57)                1.0853         estimate D2E/DX2                !
 ! R58   R(32,58)                1.0862         estimate D2E/DX2                !
 ! R59   R(33,34)                1.3911         estimate D2E/DX2                !
 ! R60   R(33,59)                1.0866         estimate D2E/DX2                !
 ! R61   R(34,35)                1.393          estimate D2E/DX2                !
 ! R62   R(34,60)                1.0859         estimate D2E/DX2                !
 ! R63   R(35,36)                1.3916         estimate D2E/DX2                !
 ! R64   R(35,61)                1.0859         estimate D2E/DX2                !
 ! R65   R(36,37)                1.3936         estimate D2E/DX2                !
 ! R66   R(36,62)                1.086          estimate D2E/DX2                !
 ! R67   R(37,63)                1.0843         estimate D2E/DX2                !
 ! R68   R(38,39)                1.3891         estimate D2E/DX2                !
 ! R69   R(38,64)                1.0838         estimate D2E/DX2                !
 ! R70   R(39,40)                1.3938         estimate D2E/DX2                !
 ! R71   R(39,65)                1.0855         estimate D2E/DX2                !
 ! R72   R(40,41)                1.3903         estimate D2E/DX2                !
 ! R73   R(40,66)                1.0858         estimate D2E/DX2                !
 ! R74   R(41,42)                1.3931         estimate D2E/DX2                !
 ! R75   R(41,67)                1.0855         estimate D2E/DX2                !
 ! R76   R(42,68)                1.083          estimate D2E/DX2                !
 ! R77   R(70,71)                1.3898         estimate D2E/DX2                !
 ! R78   R(70,72)                1.3922         estimate D2E/DX2                !
 ! R79   R(71,73)                1.3888         estimate D2E/DX2                !
 ! R80   R(71,74)                1.0837         estimate D2E/DX2                !
 ! R81   R(72,75)                1.3876         estimate D2E/DX2                !
 ! R82   R(72,76)                1.085          estimate D2E/DX2                !
 ! R83   R(73,77)                1.3971         estimate D2E/DX2                !
 ! R84   R(73,78)                1.0861         estimate D2E/DX2                !
 ! R85   R(75,77)                1.3994         estimate D2E/DX2                !
 ! R86   R(75,79)                1.0863         estimate D2E/DX2                !
 ! R87   R(77,80)                1.5059         estimate D2E/DX2                !
 ! R88   R(80,81)                1.0939         estimate D2E/DX2                !
 ! R89   R(80,82)                1.0935         estimate D2E/DX2                !
 ! R90   R(80,83)                1.0966         estimate D2E/DX2                !
 ! A1    A(2,1,6)              120.2971         estimate D2E/DX2                !
 ! A2    A(2,1,43)             119.9563         estimate D2E/DX2                !
 ! A3    A(6,1,43)             119.7429         estimate D2E/DX2                !
 ! A4    A(1,2,3)              120.0            estimate D2E/DX2                !
 ! A5    A(1,2,44)             119.7701         estimate D2E/DX2                !
 ! A6    A(3,2,44)             120.2285         estimate D2E/DX2                !
 ! A7    A(2,3,4)              119.8448         estimate D2E/DX2                !
 ! A8    A(2,3,45)             120.1013         estimate D2E/DX2                !
 ! A9    A(4,3,45)             120.0532         estimate D2E/DX2                !
 ! A10   A(3,4,5)              120.1476         estimate D2E/DX2                !
 ! A11   A(3,4,46)             120.1402         estimate D2E/DX2                !
 ! A12   A(5,4,46)             119.7097         estimate D2E/DX2                !
 ! A13   A(4,5,6)              120.1534         estimate D2E/DX2                !
 ! A14   A(4,5,69)             120.3098         estimate D2E/DX2                !
 ! A15   A(6,5,69)             119.5219         estimate D2E/DX2                !
 ! A16   A(1,6,5)              119.5563         estimate D2E/DX2                !
 ! A17   A(1,6,7)              119.6187         estimate D2E/DX2                !
 ! A18   A(5,6,7)              120.825          estimate D2E/DX2                !
 ! A19   A(6,7,11)             111.6299         estimate D2E/DX2                !
 ! A20   A(6,7,21)             111.3878         estimate D2E/DX2                !
 ! A21   A(6,7,47)             109.1943         estimate D2E/DX2                !
 ! A22   A(11,7,21)            107.7281         estimate D2E/DX2                !
 ! A23   A(11,7,47)            111.0361         estimate D2E/DX2                !
 ! A24   A(21,7,47)            105.7082         estimate D2E/DX2                !
 ! A25   A(8,10,9)             119.5397         estimate D2E/DX2                !
 ! A26   A(8,10,11)            104.3784         estimate D2E/DX2                !
 ! A27   A(8,10,70)            109.6593         estimate D2E/DX2                !
 ! A28   A(9,10,11)            110.8143         estimate D2E/DX2                !
 ! A29   A(9,10,70)            108.105          estimate D2E/DX2                !
 ! A30   A(11,10,70)           103.1103         estimate D2E/DX2                !
 ! A31   A(7,11,10)            117.4231         estimate D2E/DX2                !
 ! A32   A(7,11,48)            112.7925         estimate D2E/DX2                !
 ! A33   A(10,11,48)           107.2046         estimate D2E/DX2                !
 ! A34   A(13,12,18)           120.0359         estimate D2E/DX2                !
 ! A35   A(13,12,49)           119.9126         estimate D2E/DX2                !
 ! A36   A(18,12,49)           120.0501         estimate D2E/DX2                !
 ! A37   A(12,13,14)           120.2513         estimate D2E/DX2                !
 ! A38   A(12,13,50)           119.5488         estimate D2E/DX2                !
 ! A39   A(14,13,50)           120.1999         estimate D2E/DX2                !
 ! A40   A(13,14,15)           119.749          estimate D2E/DX2                !
 ! A41   A(13,14,51)           120.1658         estimate D2E/DX2                !
 ! A42   A(15,14,51)           120.0853         estimate D2E/DX2                !
 ! A43   A(14,15,16)           120.1051         estimate D2E/DX2                !
 ! A44   A(14,15,52)           120.1523         estimate D2E/DX2                !
 ! A45   A(16,15,52)           119.7426         estimate D2E/DX2                !
 ! A46   A(15,16,18)           120.2071         estimate D2E/DX2                !
 ! A47   A(15,16,53)           119.9415         estimate D2E/DX2                !
 ! A48   A(18,16,53)           119.8514         estimate D2E/DX2                !
 ! A49   A(19,17,27)           100.2978         estimate D2E/DX2                !
 ! A50   A(12,18,16)           119.6504         estimate D2E/DX2                !
 ! A51   A(12,18,19)           120.9771         estimate D2E/DX2                !
 ! A52   A(16,18,19)           119.2719         estimate D2E/DX2                !
 ! A53   A(17,19,18)           111.5019         estimate D2E/DX2                !
 ! A54   A(17,19,20)           113.1225         estimate D2E/DX2                !
 ! A55   A(17,19,24)            99.3062         estimate D2E/DX2                !
 ! A56   A(18,19,20)           110.1423         estimate D2E/DX2                !
 ! A57   A(18,19,24)           117.6682         estimate D2E/DX2                !
 ! A58   A(20,19,24)           104.6753         estimate D2E/DX2                !
 ! A59   A(19,20,21)           104.564          estimate D2E/DX2                !
 ! A60   A(7,21,20)            118.5498         estimate D2E/DX2                !
 ! A61   A(7,21,22)            125.2346         estimate D2E/DX2                !
 ! A62   A(20,21,22)           116.2019         estimate D2E/DX2                !
 ! A63   A(21,22,24)           106.4065         estimate D2E/DX2                !
 ! A64   A(27,23,28)           123.4105         estimate D2E/DX2                !
 ! A65   A(27,23,32)           116.8995         estimate D2E/DX2                !
 ! A66   A(28,23,32)           119.653          estimate D2E/DX2                !
 ! A67   A(19,24,22)           107.3602         estimate D2E/DX2                !
 ! A68   A(19,24,27)            87.525          estimate D2E/DX2                !
 ! A69   A(22,24,27)           117.9836         estimate D2E/DX2                !
 ! A70   A(27,25,33)           119.3456         estimate D2E/DX2                !
 ! A71   A(27,25,37)           122.1521         estimate D2E/DX2                !
 ! A72   A(33,25,37)           118.3687         estimate D2E/DX2                !
 ! A73   A(27,26,38)           119.294          estimate D2E/DX2                !
 ! A74   A(27,26,42)           121.9841         estimate D2E/DX2                !
 ! A75   A(38,26,42)           118.712          estimate D2E/DX2                !
 ! A76   A(17,27,23)           112.0983         estimate D2E/DX2                !
 ! A77   A(17,27,24)            72.0194         estimate D2E/DX2                !
 ! A78   A(17,27,25)            88.6926         estimate D2E/DX2                !
 ! A79   A(17,27,26)           133.3151         estimate D2E/DX2                !
 ! A80   A(23,27,24)            96.4204         estimate D2E/DX2                !
 ! A81   A(23,27,25)            98.1926         estimate D2E/DX2                !
 ! A82   A(23,27,26)           112.6228         estimate D2E/DX2                !
 ! A83   A(24,27,25)           159.1541         estimate D2E/DX2                !
 ! A84   A(24,27,26)            90.3571         estimate D2E/DX2                !
 ! A85   A(25,27,26)            97.6146         estimate D2E/DX2                !
 ! A86   A(23,28,29)           120.0551         estimate D2E/DX2                !
 ! A87   A(23,28,54)           120.431          estimate D2E/DX2                !
 ! A88   A(29,28,54)           119.5138         estimate D2E/DX2                !
 ! A89   A(28,29,30)           120.2585         estimate D2E/DX2                !
 ! A90   A(28,29,55)           119.6009         estimate D2E/DX2                !
 ! A91   A(30,29,55)           120.1391         estimate D2E/DX2                !
 ! A92   A(29,30,31)           119.8711         estimate D2E/DX2                !
 ! A93   A(29,30,56)           120.2362         estimate D2E/DX2                !
 ! A94   A(31,30,56)           119.8923         estimate D2E/DX2                !
 ! A95   A(30,31,32)           119.9853         estimate D2E/DX2                !
 ! A96   A(30,31,57)           120.1339         estimate D2E/DX2                !
 ! A97   A(32,31,57)           119.8761         estimate D2E/DX2                !
 ! A98   A(23,32,31)           120.1734         estimate D2E/DX2                !
 ! A99   A(23,32,58)           120.0365         estimate D2E/DX2                !
 ! A100  A(31,32,58)           119.7895         estimate D2E/DX2                !
 ! A101  A(25,33,34)           120.9924         estimate D2E/DX2                !
 ! A102  A(25,33,59)           120.0527         estimate D2E/DX2                !
 ! A103  A(34,33,59)           118.9548         estimate D2E/DX2                !
 ! A104  A(33,34,35)           120.0587         estimate D2E/DX2                !
 ! A105  A(33,34,60)           119.7406         estimate D2E/DX2                !
 ! A106  A(35,34,60)           120.2007         estimate D2E/DX2                !
 ! A107  A(34,35,36)           119.5857         estimate D2E/DX2                !
 ! A108  A(34,35,61)           120.1888         estimate D2E/DX2                !
 ! A109  A(36,35,61)           120.2255         estimate D2E/DX2                !
 ! A110  A(35,36,37)           120.2407         estimate D2E/DX2                !
 ! A111  A(35,36,62)           120.1383         estimate D2E/DX2                !
 ! A112  A(37,36,62)           119.6208         estimate D2E/DX2                !
 ! A113  A(25,37,36)           120.7526         estimate D2E/DX2                !
 ! A114  A(25,37,63)           119.9018         estimate D2E/DX2                !
 ! A115  A(36,37,63)           119.3452         estimate D2E/DX2                !
 ! A116  A(26,38,39)           120.5807         estimate D2E/DX2                !
 ! A117  A(26,38,64)           120.1224         estimate D2E/DX2                !
 ! A118  A(39,38,64)           119.2956         estimate D2E/DX2                !
 ! A119  A(38,39,40)           120.1722         estimate D2E/DX2                !
 ! A120  A(38,39,65)           119.5943         estimate D2E/DX2                !
 ! A121  A(40,39,65)           120.2242         estimate D2E/DX2                !
 ! A122  A(39,40,41)           119.7257         estimate D2E/DX2                !
 ! A123  A(39,40,66)           120.1082         estimate D2E/DX2                !
 ! A124  A(41,40,66)           120.1638         estimate D2E/DX2                !
 ! A125  A(40,41,42)           120.2229         estimate D2E/DX2                !
 ! A126  A(40,41,67)           120.2793         estimate D2E/DX2                !
 ! A127  A(42,41,67)           119.4971         estimate D2E/DX2                !
 ! A128  A(26,42,41)           120.5347         estimate D2E/DX2                !
 ! A129  A(26,42,68)           120.571          estimate D2E/DX2                !
 ! A130  A(41,42,68)           118.8923         estimate D2E/DX2                !
 ! A131  A(10,70,71)           119.5949         estimate D2E/DX2                !
 ! A132  A(10,70,72)           118.9238         estimate D2E/DX2                !
 ! A133  A(71,70,72)           121.4002         estimate D2E/DX2                !
 ! A134  A(70,71,73)           118.8874         estimate D2E/DX2                !
 ! A135  A(70,71,74)           120.1172         estimate D2E/DX2                !
 ! A136  A(73,71,74)           120.9813         estimate D2E/DX2                !
 ! A137  A(70,72,75)           118.8937         estimate D2E/DX2                !
 ! A138  A(70,72,76)           120.4428         estimate D2E/DX2                !
 ! A139  A(75,72,76)           120.6598         estimate D2E/DX2                !
 ! A140  A(71,73,77)           121.0598         estimate D2E/DX2                !
 ! A141  A(71,73,78)           119.3164         estimate D2E/DX2                !
 ! A142  A(77,73,78)           119.6168         estimate D2E/DX2                !
 ! A143  A(72,75,77)           120.9972         estimate D2E/DX2                !
 ! A144  A(72,75,79)           119.4007         estimate D2E/DX2                !
 ! A145  A(77,75,79)           119.6001         estimate D2E/DX2                !
 ! A146  A(73,77,75)           118.7438         estimate D2E/DX2                !
 ! A147  A(73,77,80)           120.4498         estimate D2E/DX2                !
 ! A148  A(75,77,80)           120.783          estimate D2E/DX2                !
 ! A149  A(77,80,81)           111.3771         estimate D2E/DX2                !
 ! A150  A(77,80,82)           111.5622         estimate D2E/DX2                !
 ! A151  A(77,80,83)           110.1206         estimate D2E/DX2                !
 ! A152  A(81,80,82)           108.4989         estimate D2E/DX2                !
 ! A153  A(81,80,83)           107.4467         estimate D2E/DX2                !
 ! A154  A(82,80,83)           107.6732         estimate D2E/DX2                !
 ! D1    D(6,1,2,3)             -0.0728         estimate D2E/DX2                !
 ! D2    D(6,1,2,44)          -179.6385         estimate D2E/DX2                !
 ! D3    D(43,1,2,3)           179.2303         estimate D2E/DX2                !
 ! D4    D(43,1,2,44)           -0.3354         estimate D2E/DX2                !
 ! D5    D(2,1,6,5)             -0.1709         estimate D2E/DX2                !
 ! D6    D(2,1,6,7)            179.7761         estimate D2E/DX2                !
 ! D7    D(43,1,6,5)          -179.4755         estimate D2E/DX2                !
 ! D8    D(43,1,6,7)             0.4716         estimate D2E/DX2                !
 ! D9    D(1,2,3,4)              0.1851         estimate D2E/DX2                !
 ! D10   D(1,2,3,45)          -179.5292         estimate D2E/DX2                !
 ! D11   D(44,2,3,4)           179.7488         estimate D2E/DX2                !
 ! D12   D(44,2,3,45)            0.0345         estimate D2E/DX2                !
 ! D13   D(2,3,4,5)             -0.0529         estimate D2E/DX2                !
 ! D14   D(2,3,4,46)          -179.4748         estimate D2E/DX2                !
 ! D15   D(45,3,4,5)           179.6616         estimate D2E/DX2                !
 ! D16   D(45,3,4,46)            0.2397         estimate D2E/DX2                !
 ! D17   D(3,4,5,6)             -0.1921         estimate D2E/DX2                !
 ! D18   D(3,4,5,69)          -178.7818         estimate D2E/DX2                !
 ! D19   D(46,4,5,6)           179.2322         estimate D2E/DX2                !
 ! D20   D(46,4,5,69)            0.6426         estimate D2E/DX2                !
 ! D21   D(4,5,6,1)              0.3032         estimate D2E/DX2                !
 ! D22   D(4,5,6,7)           -179.6432         estimate D2E/DX2                !
 ! D23   D(69,5,6,1)           178.9039         estimate D2E/DX2                !
 ! D24   D(69,5,6,7)            -1.0424         estimate D2E/DX2                !
 ! D25   D(1,6,7,11)          -131.497          estimate D2E/DX2                !
 ! D26   D(1,6,7,21)           108.0324         estimate D2E/DX2                !
 ! D27   D(1,6,7,47)            -8.3411         estimate D2E/DX2                !
 ! D28   D(5,6,7,11)            48.4493         estimate D2E/DX2                !
 ! D29   D(5,6,7,21)           -72.0212         estimate D2E/DX2                !
 ! D30   D(5,6,7,47)           171.6052         estimate D2E/DX2                !
 ! D31   D(6,7,11,10)           72.477          estimate D2E/DX2                !
 ! D32   D(6,7,11,48)         -162.1088         estimate D2E/DX2                !
 ! D33   D(21,7,11,10)        -164.933          estimate D2E/DX2                !
 ! D34   D(21,7,11,48)         -39.5187         estimate D2E/DX2                !
 ! D35   D(47,7,11,10)         -49.6254         estimate D2E/DX2                !
 ! D36   D(47,7,11,48)          75.7889         estimate D2E/DX2                !
 ! D37   D(6,7,21,20)           61.5498         estimate D2E/DX2                !
 ! D38   D(6,7,21,22)         -117.0501         estimate D2E/DX2                !
 ! D39   D(11,7,21,20)         -61.1892         estimate D2E/DX2                !
 ! D40   D(11,7,21,22)         120.2109         estimate D2E/DX2                !
 ! D41   D(47,7,21,20)        -179.9647         estimate D2E/DX2                !
 ! D42   D(47,7,21,22)           1.4354         estimate D2E/DX2                !
 ! D43   D(8,10,11,7)          159.5888         estimate D2E/DX2                !
 ! D44   D(8,10,11,48)          31.452          estimate D2E/DX2                !
 ! D45   D(9,10,11,7)           29.6508         estimate D2E/DX2                !
 ! D46   D(9,10,11,48)         -98.486          estimate D2E/DX2                !
 ! D47   D(70,10,11,7)         -85.8098         estimate D2E/DX2                !
 ! D48   D(70,10,11,48)        146.0534         estimate D2E/DX2                !
 ! D49   D(8,10,70,71)        -140.5721         estimate D2E/DX2                !
 ! D50   D(8,10,70,72)          42.6563         estimate D2E/DX2                !
 ! D51   D(9,10,70,71)          -8.6886         estimate D2E/DX2                !
 ! D52   D(9,10,70,72)         174.5398         estimate D2E/DX2                !
 ! D53   D(11,10,70,71)        108.6985         estimate D2E/DX2                !
 ! D54   D(11,10,70,72)        -68.0731         estimate D2E/DX2                !
 ! D55   D(18,12,13,14)          0.2467         estimate D2E/DX2                !
 ! D56   D(18,12,13,50)       -179.747          estimate D2E/DX2                !
 ! D57   D(49,12,13,14)        179.819          estimate D2E/DX2                !
 ! D58   D(49,12,13,50)         -0.1746         estimate D2E/DX2                !
 ! D59   D(13,12,18,16)         -0.4205         estimate D2E/DX2                !
 ! D60   D(13,12,18,19)       -176.7478         estimate D2E/DX2                !
 ! D61   D(49,12,18,16)       -179.9923         estimate D2E/DX2                !
 ! D62   D(49,12,18,19)          3.6805         estimate D2E/DX2                !
 ! D63   D(12,13,14,15)          0.0281         estimate D2E/DX2                !
 ! D64   D(12,13,14,51)        179.9982         estimate D2E/DX2                !
 ! D65   D(50,13,14,15)       -179.9783         estimate D2E/DX2                !
 ! D66   D(50,13,14,51)         -0.0082         estimate D2E/DX2                !
 ! D67   D(13,14,15,16)         -0.1268         estimate D2E/DX2                !
 ! D68   D(13,14,15,52)        179.9767         estimate D2E/DX2                !
 ! D69   D(51,14,15,16)        179.9031         estimate D2E/DX2                !
 ! D70   D(51,14,15,52)          0.0066         estimate D2E/DX2                !
 ! D71   D(14,15,16,18)         -0.0491         estimate D2E/DX2                !
 ! D72   D(14,15,16,53)        179.9322         estimate D2E/DX2                !
 ! D73   D(52,15,16,18)        179.8478         estimate D2E/DX2                !
 ! D74   D(52,15,16,53)         -0.1709         estimate D2E/DX2                !
 ! D75   D(15,16,18,12)          0.3225         estimate D2E/DX2                !
 ! D76   D(15,16,18,19)        176.7127         estimate D2E/DX2                !
 ! D77   D(53,16,18,12)       -179.6587         estimate D2E/DX2                !
 ! D78   D(53,16,18,19)         -3.2685         estimate D2E/DX2                !
 ! D79   D(27,17,19,18)       -133.2101         estimate D2E/DX2                !
 ! D80   D(27,17,19,20)        101.9939         estimate D2E/DX2                !
 ! D81   D(27,17,19,24)         -8.4393         estimate D2E/DX2                !
 ! D82   D(19,17,27,23)        -83.2931         estimate D2E/DX2                !
 ! D83   D(19,17,27,24)          6.4268         estimate D2E/DX2                !
 ! D84   D(19,17,27,25)        178.3944         estimate D2E/DX2                !
 ! D85   D(19,17,27,26)         79.1498         estimate D2E/DX2                !
 ! D86   D(12,18,19,17)       -145.1399         estimate D2E/DX2                !
 ! D87   D(12,18,19,20)        -18.6941         estimate D2E/DX2                !
 ! D88   D(12,18,19,24)        101.1071         estimate D2E/DX2                !
 ! D89   D(16,18,19,17)         38.5192         estimate D2E/DX2                !
 ! D90   D(16,18,19,20)        164.965          estimate D2E/DX2                !
 ! D91   D(16,18,19,24)        -75.2339         estimate D2E/DX2                !
 ! D92   D(17,19,20,21)       -115.2599         estimate D2E/DX2                !
 ! D93   D(18,19,20,21)        119.2101         estimate D2E/DX2                !
 ! D94   D(24,19,20,21)         -8.1869         estimate D2E/DX2                !
 ! D95   D(17,19,24,22)        125.7842         estimate D2E/DX2                !
 ! D96   D(17,19,24,27)          7.1928         estimate D2E/DX2                !
 ! D97   D(18,19,24,22)       -113.8652         estimate D2E/DX2                !
 ! D98   D(18,19,24,27)        127.5435         estimate D2E/DX2                !
 ! D99   D(20,19,24,22)          8.7662         estimate D2E/DX2                !
 ! D100  D(20,19,24,27)       -109.8252         estimate D2E/DX2                !
 ! D101  D(19,20,21,7)        -173.5906         estimate D2E/DX2                !
 ! D102  D(19,20,21,22)          5.1349         estimate D2E/DX2                !
 ! D103  D(7,21,22,24)         179.1243         estimate D2E/DX2                !
 ! D104  D(20,21,22,24)          0.495          estimate D2E/DX2                !
 ! D105  D(21,22,24,19)         -5.9237         estimate D2E/DX2                !
 ! D106  D(21,22,24,27)         90.6726         estimate D2E/DX2                !
 ! D107  D(28,23,27,17)        147.931          estimate D2E/DX2                !
 ! D108  D(28,23,27,24)         74.764          estimate D2E/DX2                !
 ! D109  D(28,23,27,25)       -120.1449         estimate D2E/DX2                !
 ! D110  D(28,23,27,26)        -18.3136         estimate D2E/DX2                !
 ! D111  D(32,23,27,17)        -29.8425         estimate D2E/DX2                !
 ! D112  D(32,23,27,24)       -103.0095         estimate D2E/DX2                !
 ! D113  D(32,23,27,25)         62.0816         estimate D2E/DX2                !
 ! D114  D(32,23,27,26)        163.9129         estimate D2E/DX2                !
 ! D115  D(27,23,28,29)       -177.5895         estimate D2E/DX2                !
 ! D116  D(27,23,28,54)          2.2623         estimate D2E/DX2                !
 ! D117  D(32,23,28,29)          0.1257         estimate D2E/DX2                !
 ! D118  D(32,23,28,54)        179.9775         estimate D2E/DX2                !
 ! D119  D(27,23,32,31)        177.5843         estimate D2E/DX2                !
 ! D120  D(27,23,32,58)         -2.1213         estimate D2E/DX2                !
 ! D121  D(28,23,32,31)         -0.2771         estimate D2E/DX2                !
 ! D122  D(28,23,32,58)       -179.9827         estimate D2E/DX2                !
 ! D123  D(19,24,27,17)         -6.1238         estimate D2E/DX2                !
 ! D124  D(19,24,27,23)        105.0679         estimate D2E/DX2                !
 ! D125  D(19,24,27,25)        -29.2381         estimate D2E/DX2                !
 ! D126  D(19,24,27,26)       -142.1144         estimate D2E/DX2                !
 ! D127  D(22,24,27,17)       -114.4985         estimate D2E/DX2                !
 ! D128  D(22,24,27,23)         -3.3068         estimate D2E/DX2                !
 ! D129  D(22,24,27,25)       -137.6129         estimate D2E/DX2                !
 ! D130  D(22,24,27,26)        109.5109         estimate D2E/DX2                !
 ! D131  D(33,25,27,17)        151.6621         estimate D2E/DX2                !
 ! D132  D(33,25,27,23)         39.5209         estimate D2E/DX2                !
 ! D133  D(33,25,27,24)        173.5933         estimate D2E/DX2                !
 ! D134  D(33,25,27,26)        -74.7677         estimate D2E/DX2                !
 ! D135  D(37,25,27,17)        -32.6093         estimate D2E/DX2                !
 ! D136  D(37,25,27,23)       -144.7504         estimate D2E/DX2                !
 ! D137  D(37,25,27,24)        -10.6781         estimate D2E/DX2                !
 ! D138  D(37,25,27,26)        100.9609         estimate D2E/DX2                !
 ! D139  D(27,25,33,34)        176.2978         estimate D2E/DX2                !
 ! D140  D(27,25,33,59)         -3.5724         estimate D2E/DX2                !
 ! D141  D(37,25,33,34)          0.4073         estimate D2E/DX2                !
 ! D142  D(37,25,33,59)       -179.4628         estimate D2E/DX2                !
 ! D143  D(27,25,37,36)       -176.0155         estimate D2E/DX2                !
 ! D144  D(27,25,37,63)          4.2001         estimate D2E/DX2                !
 ! D145  D(33,25,37,36)         -0.2468         estimate D2E/DX2                !
 ! D146  D(33,25,37,63)        179.9687         estimate D2E/DX2                !
 ! D147  D(38,26,27,17)        -99.8616         estimate D2E/DX2                !
 ! D148  D(38,26,27,23)         62.5129         estimate D2E/DX2                !
 ! D149  D(38,26,27,24)        -34.5953         estimate D2E/DX2                !
 ! D150  D(38,26,27,25)        164.7211         estimate D2E/DX2                !
 ! D151  D(42,26,27,17)         81.2953         estimate D2E/DX2                !
 ! D152  D(42,26,27,23)       -116.3302         estimate D2E/DX2                !
 ! D153  D(42,26,27,24)        146.5616         estimate D2E/DX2                !
 ! D154  D(42,26,27,25)        -14.1221         estimate D2E/DX2                !
 ! D155  D(27,26,38,39)       -176.566          estimate D2E/DX2                !
 ! D156  D(27,26,38,64)          3.8514         estimate D2E/DX2                !
 ! D157  D(42,26,38,39)          2.3151         estimate D2E/DX2                !
 ! D158  D(42,26,38,64)       -177.2674         estimate D2E/DX2                !
 ! D159  D(27,26,42,41)        178.3073         estimate D2E/DX2                !
 ! D160  D(27,26,42,68)         -2.213          estimate D2E/DX2                !
 ! D161  D(38,26,42,41)         -0.5423         estimate D2E/DX2                !
 ! D162  D(38,26,42,68)        178.9374         estimate D2E/DX2                !
 ! D163  D(23,28,29,30)          0.3702         estimate D2E/DX2                !
 ! D164  D(23,28,29,55)        179.9246         estimate D2E/DX2                !
 ! D165  D(54,28,29,30)       -179.483          estimate D2E/DX2                !
 ! D166  D(54,28,29,55)          0.0714         estimate D2E/DX2                !
 ! D167  D(28,29,30,31)         -0.7138         estimate D2E/DX2                !
 ! D168  D(28,29,30,56)        179.0631         estimate D2E/DX2                !
 ! D169  D(55,29,30,31)        179.7342         estimate D2E/DX2                !
 ! D170  D(55,29,30,56)         -0.4889         estimate D2E/DX2                !
 ! D171  D(29,30,31,32)          0.5607         estimate D2E/DX2                !
 ! D172  D(29,30,31,57)        179.7672         estimate D2E/DX2                !
 ! D173  D(56,30,31,32)       -179.2169         estimate D2E/DX2                !
 ! D174  D(56,30,31,57)         -0.0104         estimate D2E/DX2                !
 ! D175  D(30,31,32,23)         -0.0661         estimate D2E/DX2                !
 ! D176  D(30,31,32,58)        179.6403         estimate D2E/DX2                !
 ! D177  D(57,31,32,23)       -179.2746         estimate D2E/DX2                !
 ! D178  D(57,31,32,58)          0.4317         estimate D2E/DX2                !
 ! D179  D(25,33,34,35)         -0.3038         estimate D2E/DX2                !
 ! D180  D(25,33,34,60)        179.7068         estimate D2E/DX2                !
 ! D181  D(59,33,34,35)        179.5677         estimate D2E/DX2                !
 ! D182  D(59,33,34,60)         -0.4216         estimate D2E/DX2                !
 ! D183  D(33,34,35,36)          0.0315         estimate D2E/DX2                !
 ! D184  D(33,34,35,61)        179.9959         estimate D2E/DX2                !
 ! D185  D(60,34,35,36)       -179.9792         estimate D2E/DX2                !
 ! D186  D(60,34,35,61)         -0.0148         estimate D2E/DX2                !
 ! D187  D(34,35,36,37)          0.1269         estimate D2E/DX2                !
 ! D188  D(34,35,36,62)        179.9777         estimate D2E/DX2                !
 ! D189  D(61,35,36,37)       -179.8375         estimate D2E/DX2                !
 ! D190  D(61,35,36,62)          0.0134         estimate D2E/DX2                !
 ! D191  D(35,36,37,25)         -0.0166         estimate D2E/DX2                !
 ! D192  D(35,36,37,63)        179.769          estimate D2E/DX2                !
 ! D193  D(62,36,37,25)       -179.8683         estimate D2E/DX2                !
 ! D194  D(62,36,37,63)         -0.0826         estimate D2E/DX2                !
 ! D195  D(26,38,39,40)         -2.337          estimate D2E/DX2                !
 ! D196  D(26,38,39,65)        178.7733         estimate D2E/DX2                !
 ! D197  D(64,38,39,40)        177.249          estimate D2E/DX2                !
 ! D198  D(64,38,39,65)         -1.6408         estimate D2E/DX2                !
 ! D199  D(38,39,40,41)          0.5506         estimate D2E/DX2                !
 ! D200  D(38,39,40,66)       -178.8976         estimate D2E/DX2                !
 ! D201  D(65,39,40,41)        179.4333         estimate D2E/DX2                !
 ! D202  D(65,39,40,66)         -0.0149         estimate D2E/DX2                !
 ! D203  D(39,40,41,42)          1.2175         estimate D2E/DX2                !
 ! D204  D(39,40,41,67)       -179.0929         estimate D2E/DX2                !
 ! D205  D(66,40,41,42)       -179.3346         estimate D2E/DX2                !
 ! D206  D(66,40,41,67)          0.3549         estimate D2E/DX2                !
 ! D207  D(40,41,42,26)         -1.2155         estimate D2E/DX2                !
 ! D208  D(40,41,42,68)        179.2962         estimate D2E/DX2                !
 ! D209  D(67,41,42,26)        179.0926         estimate D2E/DX2                !
 ! D210  D(67,41,42,68)         -0.3957         estimate D2E/DX2                !
 ! D211  D(10,70,71,73)       -175.8192         estimate D2E/DX2                !
 ! D212  D(10,70,71,74)          2.8264         estimate D2E/DX2                !
 ! D213  D(72,70,71,73)          0.8702         estimate D2E/DX2                !
 ! D214  D(72,70,71,74)        179.5158         estimate D2E/DX2                !
 ! D215  D(10,70,72,75)        175.8652         estimate D2E/DX2                !
 ! D216  D(10,70,72,76)         -3.4385         estimate D2E/DX2                !
 ! D217  D(71,70,72,75)         -0.8459         estimate D2E/DX2                !
 ! D218  D(71,70,72,76)        179.8505         estimate D2E/DX2                !
 ! D219  D(70,71,73,77)          0.2055         estimate D2E/DX2                !
 ! D220  D(70,71,73,78)        179.2429         estimate D2E/DX2                !
 ! D221  D(74,71,73,77)       -178.428          estimate D2E/DX2                !
 ! D222  D(74,71,73,78)          0.6094         estimate D2E/DX2                !
 ! D223  D(70,72,75,77)         -0.254          estimate D2E/DX2                !
 ! D224  D(70,72,75,79)       -179.7438         estimate D2E/DX2                !
 ! D225  D(76,72,75,77)        179.0481         estimate D2E/DX2                !
 ! D226  D(76,72,75,79)         -0.4417         estimate D2E/DX2                !
 ! D227  D(71,73,77,75)         -1.2631         estimate D2E/DX2                !
 ! D228  D(71,73,77,80)        176.9899         estimate D2E/DX2                !
 ! D229  D(78,73,77,75)        179.7023         estimate D2E/DX2                !
 ! D230  D(78,73,77,80)         -2.0447         estimate D2E/DX2                !
 ! D231  D(72,75,77,73)          1.2874         estimate D2E/DX2                !
 ! D232  D(72,75,77,80)       -176.9597         estimate D2E/DX2                !
 ! D233  D(79,75,77,73)       -179.2238         estimate D2E/DX2                !
 ! D234  D(79,75,77,80)          2.5291         estimate D2E/DX2                !
 ! D235  D(73,77,80,81)         35.6087         estimate D2E/DX2                !
 ! D236  D(73,77,80,82)        157.0113         estimate D2E/DX2                !
 ! D237  D(73,77,80,83)        -83.489          estimate D2E/DX2                !
 ! D238  D(75,77,80,81)       -146.1742         estimate D2E/DX2                !
 ! D239  D(75,77,80,82)        -24.7716         estimate D2E/DX2                !
 ! D240  D(75,77,80,83)         94.7281         estimate D2E/DX2                !
 --------------------------------------------------------------------------------
 Stoichiometry    C40H34N3O4PS
 Framework group  C1[X(C40H34N3O4PS)]
 Deg. of freedom   243
 Full point group                 C1      NOp   1
 Largest Abelian subgroup         C1      NOp   1
 Largest concise Abelian subgroup C1      NOp   1
                         Standard orientation:                         
 ---------------------------------------------------------------------
 Center     Atomic      Atomic             Coordinates (Angstroms)
 Number     Number       Type             X           Y           Z
 ---------------------------------------------------------------------
      1          6           0       -3.425744    1.259327   -2.186350
      2          6           0       -4.410557    2.244299   -2.143510
      3          6           0       -4.800916    2.784972   -0.922624
      4          6           0       -4.201760    2.341616    0.256109
      5          6           0       -3.217919    1.361507    0.212967
      6          6           0       -2.827184    0.812771   -1.010982
      7          6           0       -1.757701   -0.266439   -1.075190
      8          8           0       -2.982554   -3.574205    0.378834
      9          8           0       -3.481801   -2.531147   -1.864908
     10         16           0       -3.278052   -2.391333   -0.424594
     11          7           0       -2.012667   -1.342275   -0.101486
     12          6           0       -0.114540    3.616789    0.401002
     13          6           0       -0.131430    5.003716    0.532229
     14          6           0        1.047002    5.698074    0.788415
     15          6           0        2.247798    5.000608    0.913175
     16          6           0        2.266848    3.616594    0.784684
     17          8           0        2.067685    0.816722    1.179004
     18          6           0        1.084553    2.918222    0.531272
     19          6           0        1.140326    1.421547    0.320958
     20          8           0       -0.171931    0.859882    0.425780
     21          6           0       -0.399839    0.293424   -0.790346
     22          7           0        0.577521    0.309883   -1.612105
     23          6           0        2.013370   -1.766042   -0.201880
     24          7           0        1.645388    0.939342   -0.946909
     25          6           0        3.999566   -0.747332    1.478708
     26          6           0        4.212839    0.114851   -1.172886
     27         15           0        2.891315   -0.190916    0.076351
     28          6           0        2.038527   -2.455348   -1.413536
     29          6           0        1.301539   -3.627408   -1.564694
     30          6           0        0.531174   -4.112195   -0.511748
     31          6           0        0.508841   -3.429682    0.704339
     32          6           0        1.247158   -2.259431    0.859168
     33          6           0        4.571294   -2.024534    1.435999
     34          6           0        5.459999   -2.444817    2.420286
     35          6           0        5.798914   -1.589000    3.465872
     36          6           0        5.242737   -0.314466    3.518310
     37          6           0        4.350140    0.102917    2.532772
     38          6           0        3.861575    0.251380   -2.524552
     39          6           0        4.840967    0.411313   -3.496584
     40          6           0        6.184151    0.486573   -3.131971
     41          6           0        6.541178    0.389385   -1.791797
     42          6           0        5.564325    0.192127   -0.818406
     43          1           0       -3.130208    0.828501   -3.139327
     44          1           0       -4.875723    2.581945   -3.064594
     45          1           0       -5.573575    3.547123   -0.886633
     46          1           0       -4.508767    2.754190    1.212395
     47          1           0       -1.707008   -0.663096   -2.095238
     48          1           0       -1.186432   -1.913285    0.082454
     49          1           0       -1.037002    3.080688    0.204203
     50          1           0       -1.070659    5.539567    0.433343
     51          1           0        1.032242    6.779029    0.890405
     52          1           0        3.171200    5.535827    1.112670
     53          1           0        3.203598    3.076240    0.881233
     54          1           0        2.628149   -2.083866   -2.244865
     55          1           0        1.325497   -4.157372   -2.511445
     56          1           0       -0.054813   -5.017126   -0.634836
     57          1           0       -0.093324   -3.801817    1.527002
     58          1           0        1.222828   -1.727269    1.805775
     59          1           0        4.324954   -2.704178    0.624702
     60          1           0        5.887806   -3.441602    2.369743
     61          1           0        6.492363   -1.914914    4.235365
     62          1           0        5.500406    0.359956    4.329609
     63          1           0        3.922550    1.097674    2.589922
     64          1           0        2.818667    0.239612   -2.819389
     65          1           0        4.552374    0.495425   -4.539607
     66          1           0        6.947352    0.629519   -3.890909
     67          1           0        7.583175    0.461538   -1.496370
     68          1           0        5.867671    0.108007    0.217873
     69          1           0       -2.764068    1.000589    1.129856
     70          6           0       -4.681077   -1.548148    0.250288
     71          6           0       -5.626544   -0.995322   -0.605263
     72          6           0       -4.775250   -1.396013    1.630966
     73          6           0       -6.674221   -0.262074   -0.063530
     74          1           0       -5.528644   -1.119986   -1.677354
     75          6           0       -5.829252   -0.660550    2.154127
     76          1           0       -4.029559   -1.836329    2.284708
     77          6           0       -6.783886   -0.073001    1.316407
     78          1           0       -7.410163    0.183493   -0.726524
     79          1           0       -5.908369   -0.533094    3.229985
     80          6           0       -7.886888    0.780514    1.884502
     81          1           0       -8.810109    0.675094    1.307335
     82          1           0       -8.097749    0.523675    2.926236
     83          1           0       -7.599093    1.838267    1.854093
 ---------------------------------------------------------------------
 Rotational constants (GHZ):           0.0998840           0.0425078           0.0369215
 Electric field and nuclear coordinate derivatives read from checkpoint file.
 Rotating derivatives to standard orientation.
 Full mass-weighted force constant matrix:
 Low frequencies ---   -2.3137   -0.0136   -0.0057    0.0158    2.1772    5.0584
 Low frequencies ---   11.4195   14.4614   17.7200
 Diagonal vibrational polarizability:
      281.1223170     154.4401943     303.5110554
 Harmonic frequencies (cm**-1), IR intensities (KM/Mole), Raman scattering
 activities (A**4/AMU), depolarization ratios for plane and unpolarized
 incident light, reduced masses (AMU), force constants (mDyne/A),
 and normal coordinates:
                      1                      2                      3
                      A                      A                      A
 Frequencies --     11.3795                14.3220                17.6822
 Red. masses --      5.5469                 6.0184                 5.9452
 Frc consts  --      0.0004                 0.0007                 0.0011
 IR Inten    --      0.7985                 1.0542                 0.7580
  Atom  AN      X      Y      Z        X      Y      Z        X      Y      Z
     1   6    -0.06  -0.04  -0.02     0.01   0.13   0.09    -0.02  -0.07  -0.09
     2   6    -0.07  -0.06  -0.01     0.02   0.14   0.16    -0.05  -0.10  -0.11
     3   6    -0.04  -0.04  -0.01     0.03   0.06   0.19    -0.04  -0.06  -0.13
     4   6    -0.00  -0.00  -0.02     0.02  -0.03   0.16    -0.01  -0.00  -0.12
     5   6     0.01   0.01  -0.03     0.01  -0.04   0.10     0.02   0.02  -0.10
     6   6    -0.02  -0.01  -0.03     0.00   0.04   0.06     0.01  -0.01  -0.09
     7   6    -0.01  -0.00  -0.04    -0.01   0.04  -0.01     0.03   0.01  -0.07
     8   8    -0.01  -0.01  -0.05     0.01  -0.04  -0.16     0.01  -0.00  -0.13
     9   8    -0.07   0.04  -0.02    -0.00   0.07  -0.11    -0.04   0.08  -0.08
    10  16    -0.02   0.01  -0.02     0.00   0.00  -0.11     0.00   0.03  -0.08
    11   7     0.00  -0.01  -0.04    -0.00  -0.01  -0.06     0.02   0.00  -0.08
    12   6     0.02   0.02  -0.10     0.00   0.02  -0.04    -0.03  -0.01   0.08
    13   6     0.03   0.02  -0.12     0.01   0.02  -0.06    -0.04  -0.01   0.12
    14   6     0.04   0.01  -0.11     0.02   0.03  -0.10    -0.05  -0.01   0.14
    15   6     0.03  -0.00  -0.07     0.02   0.03  -0.12    -0.04   0.00   0.12
    16   6     0.01  -0.01  -0.05     0.01   0.02  -0.09    -0.03   0.01   0.08
    17   8    -0.02   0.00  -0.03     0.00   0.03  -0.01    -0.01  -0.00   0.03
    18   6     0.01   0.01  -0.06     0.01   0.02  -0.05    -0.02   0.00   0.06
    19   6    -0.01   0.00  -0.05     0.00   0.02  -0.02    -0.00   0.01   0.03
    20   8    -0.01   0.02  -0.05     0.00   0.02  -0.02    -0.00  -0.01  -0.01
    21   6    -0.01  -0.00  -0.04    -0.00   0.02  -0.01     0.02   0.02  -0.03
    22   7     0.00  -0.02  -0.03     0.00  -0.00  -0.01     0.04   0.05  -0.01
    23   6     0.01  -0.01  -0.04    -0.01   0.00   0.03    -0.02   0.02   0.03
    24   7    -0.00  -0.02  -0.03     0.01  -0.01  -0.01     0.02   0.04   0.02
    25   6    -0.05  -0.02   0.02    -0.01   0.03   0.02     0.01   0.03   0.01
    26   6     0.02   0.03   0.04    -0.00  -0.03   0.00    -0.01  -0.04  -0.01
    27  15    -0.01  -0.01  -0.00    -0.00   0.00   0.01    -0.00   0.01   0.01
    28   6     0.04   0.00  -0.04    -0.01  -0.02   0.05    -0.03   0.00   0.04
    29   6     0.05   0.00  -0.07    -0.01  -0.02   0.06    -0.03   0.00   0.06
    30   6     0.03  -0.01  -0.10    -0.02   0.00   0.07    -0.02   0.01   0.07
    31   6    -0.00  -0.03  -0.09    -0.02   0.02   0.06    -0.01   0.03   0.06
    32   6    -0.01  -0.02  -0.06    -0.02   0.03   0.04    -0.01   0.03   0.04
    33   6    -0.04  -0.02   0.02    -0.03   0.01   0.07    -0.01   0.02   0.04
    34   6    -0.06  -0.03   0.04    -0.04   0.03   0.08    -0.01   0.03   0.04
    35   6    -0.10  -0.05   0.07    -0.02   0.07   0.05     0.02   0.06   0.01
    36   6    -0.11  -0.05   0.07     0.00   0.08   0.00     0.05   0.07  -0.02
    37   6    -0.08  -0.04   0.05     0.01   0.06  -0.01     0.04   0.05  -0.02
    38   6     0.07   0.04   0.03     0.00  -0.05   0.00    -0.03  -0.04  -0.01
    39   6     0.09   0.06   0.07     0.00  -0.08  -0.00    -0.04  -0.08  -0.03
    40   6     0.08   0.08   0.11     0.01  -0.10  -0.00    -0.03  -0.13  -0.05
    41   6     0.04   0.07   0.12     0.00  -0.09  -0.00    -0.01  -0.13  -0.06
    42   6     0.01   0.04   0.09     0.00  -0.06   0.00    -0.00  -0.08  -0.04
    43   1    -0.08  -0.06  -0.02     0.00   0.19   0.06    -0.03  -0.10  -0.08
    44   1    -0.10  -0.08  -0.01     0.03   0.21   0.18    -0.08  -0.15  -0.12
    45   1    -0.05  -0.05  -0.01     0.04   0.07   0.24    -0.07  -0.08  -0.14
    46   1     0.02   0.01  -0.02     0.03  -0.09   0.19    -0.01   0.02  -0.13
    47   1    -0.01   0.00  -0.04    -0.03   0.08  -0.03     0.06   0.02  -0.07
    48   1    -0.00  -0.02  -0.07     0.00  -0.02  -0.09     0.01  -0.01  -0.09
    49   1     0.02   0.03  -0.11    -0.00   0.02  -0.00    -0.02  -0.01   0.06
    50   1     0.04   0.03  -0.15     0.01   0.02  -0.05    -0.05  -0.02   0.14
    51   1     0.05   0.01  -0.12     0.02   0.03  -0.13    -0.06  -0.01   0.18
    52   1     0.03  -0.01  -0.06     0.02   0.03  -0.15    -0.05   0.01   0.14
    53   1     0.00  -0.02  -0.02     0.02   0.03  -0.10    -0.02   0.01   0.06
    54   1     0.06   0.02  -0.03    -0.01  -0.03   0.04    -0.03  -0.01   0.03
    55   1     0.08   0.01  -0.08    -0.01  -0.03   0.07    -0.04  -0.01   0.06
    56   1     0.04  -0.02  -0.12    -0.02   0.00   0.08    -0.03   0.01   0.08
    57   1    -0.02  -0.04  -0.11    -0.03   0.04   0.06    -0.01   0.04   0.07
    58   1    -0.04  -0.03  -0.06    -0.02   0.04   0.03    -0.01   0.04   0.03
    59   1    -0.01  -0.00  -0.00    -0.05  -0.01   0.09    -0.04  -0.00   0.06
    60   1    -0.06  -0.03   0.04    -0.06   0.02   0.11    -0.02   0.02   0.06
    61   1    -0.13  -0.06   0.08    -0.02   0.08   0.06     0.03   0.07   0.01
    62   1    -0.14  -0.06   0.09     0.02   0.10  -0.02     0.07   0.09  -0.05
    63   1    -0.09  -0.04   0.05     0.03   0.07  -0.04     0.05   0.06  -0.04
    64   1     0.07   0.03   0.00     0.00  -0.03   0.00    -0.03  -0.01   0.01
    65   1     0.13   0.07   0.06     0.00  -0.09  -0.00    -0.05  -0.08  -0.02
    66   1     0.10   0.10   0.14     0.01  -0.13  -0.01    -0.04  -0.17  -0.07
    67   1     0.03   0.08   0.15     0.01  -0.11  -0.01    -0.00  -0.16  -0.07
    68   1    -0.02   0.03   0.10     0.00  -0.05   0.00     0.02  -0.08  -0.04
    69   1     0.04   0.04  -0.04     0.00  -0.11   0.07     0.04   0.07  -0.09
    70   6     0.01   0.01   0.04     0.00  -0.03  -0.06     0.03   0.02  -0.01
    71   6    -0.03   0.02   0.09     0.00   0.02  -0.03    -0.02   0.02   0.04
    72   6     0.07   0.00   0.05     0.00  -0.11  -0.05     0.10   0.02  -0.01
    73   6    -0.01   0.01   0.14     0.00  -0.01   0.01     0.00   0.01   0.09
    74   1    -0.08   0.02   0.08     0.00   0.07  -0.04    -0.07   0.03   0.03
    75   6     0.09  -0.00   0.10     0.00  -0.14  -0.01     0.12   0.00   0.05
    76   1     0.10   0.00   0.01     0.00  -0.15  -0.08     0.13   0.02  -0.05
    77   6     0.05   0.00   0.15     0.00  -0.09   0.02     0.07  -0.00   0.10
    78   1    -0.04   0.01   0.17     0.00   0.03   0.03    -0.03   0.00   0.13
    79   1     0.14  -0.01   0.10     0.00  -0.20  -0.01     0.17  -0.00   0.05
    80   6     0.08  -0.01   0.20     0.00  -0.12   0.07     0.09  -0.02   0.16
    81   1     0.06   0.01   0.23    -0.00  -0.10   0.07     0.07   0.01   0.18
    82   1     0.11  -0.03   0.20     0.02  -0.16   0.06     0.11  -0.05   0.16
    83   1     0.08  -0.01   0.21    -0.00  -0.12   0.11     0.09  -0.02   0.19
                      4                      5                      6
                      A                      A                      A
 Frequencies --     24.4676                31.0954                33.8691
 Red. masses --      5.4843                 4.3142                 5.1915
 Frc consts  --      0.0019                 0.0025                 0.0035
 IR Inten    --      0.7500                 0.3006                 0.2148
  Atom  AN      X      Y      Z        X      Y      Z        X      Y      Z
     1   6     0.07   0.04   0.01    -0.02  -0.01  -0.00    -0.01  -0.02  -0.02
     2   6     0.12   0.09   0.02    -0.02  -0.01  -0.01    -0.02  -0.03  -0.04
     3   6     0.13   0.07   0.03    -0.02  -0.01  -0.01    -0.03  -0.01  -0.04
     4   6     0.08   0.01   0.03    -0.01  -0.00  -0.01    -0.02   0.01  -0.04
     5   6     0.03  -0.04   0.02    -0.02  -0.00  -0.00    -0.01   0.02  -0.02
     6   6     0.02  -0.03   0.01    -0.02  -0.01  -0.00    -0.00   0.01  -0.01
     7   6    -0.01  -0.06  -0.01    -0.02  -0.01  -0.00    -0.01   0.01   0.00
     8   8    -0.08  -0.04  -0.04    -0.05  -0.00   0.00    -0.08   0.00  -0.08
     9   8    -0.07  -0.01  -0.03    -0.04  -0.00   0.00    -0.06   0.08  -0.05
    10  16    -0.06  -0.03  -0.03    -0.04  -0.00   0.00    -0.06   0.03  -0.05
    11   7    -0.03  -0.07  -0.03    -0.03  -0.01   0.00    -0.04   0.00  -0.01
    12   6    -0.09  -0.09  -0.05     0.00  -0.01   0.19     0.07   0.02  -0.04
    13   6    -0.13  -0.09  -0.05     0.03  -0.01   0.21     0.11   0.02  -0.06
    14   6    -0.16  -0.05  -0.01     0.07  -0.02   0.05     0.12  -0.01  -0.03
    15   6    -0.15  -0.01   0.04     0.09  -0.04  -0.15     0.10  -0.05   0.02
    16   6    -0.10  -0.01   0.04     0.06  -0.03  -0.16     0.06  -0.05   0.04
    17   8    -0.01  -0.02   0.00    -0.02  -0.03   0.00    -0.00  -0.03   0.02
    18   6    -0.07  -0.05  -0.00     0.01  -0.02   0.00     0.04  -0.02   0.01
    19   6    -0.03  -0.05   0.00    -0.01  -0.02  -0.00     0.01  -0.02   0.02
    20   8    -0.01  -0.08   0.00    -0.02  -0.01  -0.00    -0.01   0.01   0.01
    21   6    -0.00  -0.08  -0.00    -0.02  -0.02   0.00    -0.00  -0.01   0.02
    22   7    -0.00  -0.05  -0.00    -0.01  -0.03   0.01     0.00  -0.04   0.03
    23   6     0.03  -0.03   0.01     0.03  -0.02  -0.02     0.02  -0.03   0.05
    24   7    -0.01  -0.04   0.00    -0.01  -0.03  -0.00     0.00  -0.03   0.02
    25   6     0.02   0.01   0.00    -0.00   0.02   0.01     0.04  -0.00   0.00
    26   6    -0.00   0.01   0.00     0.00   0.01   0.01    -0.01   0.00   0.01
    27  15     0.01  -0.01   0.00    -0.00  -0.02   0.00     0.01  -0.02   0.02
    28   6     0.07  -0.05   0.02     0.09  -0.03  -0.02     0.06  -0.08   0.08
    29   6     0.09  -0.05   0.02     0.11  -0.04  -0.04     0.06  -0.09   0.10
    30   6     0.06  -0.04   0.00     0.06  -0.04  -0.08     0.02  -0.04   0.10
    31   6     0.02  -0.02  -0.01    -0.00  -0.03  -0.08    -0.02   0.02   0.06
    32   6     0.00  -0.02  -0.01    -0.02  -0.02  -0.06    -0.02   0.02   0.04
    33   6     0.04   0.02   0.00    -0.03  -0.00   0.08     0.10   0.03  -0.05
    34   6     0.06   0.04  -0.00    -0.02   0.04   0.09     0.14   0.04  -0.09
    35   6     0.05   0.05  -0.00     0.03   0.11   0.03     0.12   0.02  -0.06
    36   6     0.02   0.04  -0.00     0.06   0.12  -0.05     0.05  -0.01  -0.00
    37   6     0.01   0.02   0.00     0.05   0.08  -0.05     0.01  -0.02   0.03
    38   6    -0.01  -0.01   0.00     0.00   0.03   0.01    -0.02  -0.07   0.01
    39   6    -0.01   0.02   0.00     0.01   0.04   0.01    -0.03  -0.02   0.00
    40   6    -0.01   0.06   0.00     0.01   0.02   0.02    -0.04   0.11   0.00
    41   6    -0.01   0.08   0.00     0.00  -0.00   0.01    -0.03   0.18   0.00
    42   6    -0.00   0.05   0.00     0.00  -0.01   0.01    -0.02   0.13   0.01
    43   1     0.06   0.06   0.00    -0.02  -0.02  -0.00    -0.01  -0.03  -0.01
    44   1     0.15   0.15   0.03    -0.02  -0.02  -0.01    -0.02  -0.05  -0.04
    45   1     0.17   0.12   0.04    -0.02  -0.01  -0.01    -0.04  -0.02  -0.06
    46   1     0.09  -0.01   0.04    -0.01  -0.00  -0.01    -0.03   0.02  -0.04
    47   1    -0.02  -0.04  -0.02    -0.02  -0.01   0.00     0.01   0.01   0.00
    48   1    -0.04  -0.09  -0.04    -0.03  -0.02  -0.01    -0.05  -0.02  -0.02
    49   1    -0.06  -0.11  -0.08    -0.03  -0.00   0.31     0.06   0.04  -0.06
    50   1    -0.15  -0.11  -0.09     0.02  -0.00   0.36     0.13   0.05  -0.09
    51   1    -0.20  -0.05  -0.02     0.10  -0.03   0.06     0.15  -0.01  -0.04
    52   1    -0.17   0.01   0.07     0.12  -0.04  -0.28     0.11  -0.07   0.05
    53   1    -0.09   0.01   0.08     0.07  -0.04  -0.31     0.04  -0.08   0.08
    54   1     0.10  -0.06   0.03     0.13  -0.03   0.01     0.09  -0.12   0.08
    55   1     0.12  -0.07   0.03     0.16  -0.05  -0.04     0.09  -0.13   0.13
    56   1     0.07  -0.05  -0.00     0.08  -0.05  -0.10     0.02  -0.04   0.11
    57   1    -0.01  -0.01  -0.02    -0.04  -0.03  -0.11    -0.05   0.05   0.06
    58   1    -0.03  -0.00  -0.02    -0.07  -0.02  -0.06    -0.05   0.06   0.02
    59   1     0.05   0.02   0.01    -0.07  -0.05   0.13     0.12   0.05  -0.07
    60   1     0.08   0.05   0.00    -0.05   0.03   0.15     0.20   0.07  -0.13
    61   1     0.06   0.07  -0.01     0.04   0.14   0.03     0.15   0.03  -0.09
    62   1     0.01   0.05  -0.01     0.10   0.17  -0.10     0.02  -0.03   0.02
    63   1    -0.01   0.01   0.00     0.07   0.09  -0.11    -0.05  -0.05   0.07
    64   1    -0.01  -0.04   0.00     0.00   0.04   0.01    -0.02  -0.16   0.01
    65   1    -0.01   0.00   0.00     0.01   0.06   0.02    -0.04  -0.07  -0.00
    66   1    -0.02   0.08  -0.00     0.01   0.03   0.02    -0.05   0.15  -0.00
    67   1    -0.01   0.11  -0.00     0.00  -0.02   0.02    -0.04   0.28   0.00
    68   1    -0.00   0.07   0.00     0.00  -0.03   0.01    -0.01   0.18   0.01
    69   1    -0.00  -0.09   0.01    -0.02  -0.00  -0.00    -0.01   0.04  -0.02
    70   6    -0.03   0.01  -0.01    -0.03   0.01   0.00    -0.05   0.03  -0.02
    71   6    -0.00   0.07   0.00    -0.03   0.01  -0.00    -0.06   0.03  -0.01
    72   6    -0.01  -0.00  -0.01    -0.03   0.01  -0.00    -0.04   0.00  -0.02
    73   6     0.04   0.12   0.02    -0.02   0.02  -0.00    -0.08  -0.00   0.01
    74   1    -0.02   0.08  -0.00    -0.03   0.01  -0.00    -0.07   0.05  -0.01
    75   6     0.03   0.05   0.01    -0.03   0.02  -0.00    -0.06  -0.03   0.00
    76   1    -0.03  -0.05  -0.02    -0.03   0.01   0.00    -0.03   0.01  -0.03
    77   6     0.06   0.12   0.02    -0.02   0.03  -0.00    -0.08  -0.03   0.02
    78   1     0.06   0.17   0.03    -0.02   0.02  -0.01    -0.09  -0.01   0.03
    79   1     0.05   0.05   0.01    -0.03   0.03  -0.00    -0.05  -0.05   0.00
    80   6     0.12   0.18   0.03    -0.02   0.03  -0.01    -0.10  -0.08   0.05
    81   1     0.10   0.22   0.06    -0.02   0.03   0.00    -0.07  -0.01  -0.01
    82   1     0.14   0.21   0.04    -0.01   0.05  -0.00    -0.15  -0.19   0.01
    83   1     0.18   0.17   0.01    -0.02   0.03  -0.02    -0.09  -0.08   0.17
                      7                      8                      9
                      A                      A                      A
 Frequencies --     38.6255                40.5939                44.2912
 Red. masses --      3.7821                 2.8609                 1.2726
 Frc consts  --      0.0033                 0.0028                 0.0015
 IR Inten    --      0.2781                 0.2413                 0.3888
  Atom  AN      X      Y      Z        X      Y      Z        X      Y      Z
     1   6    -0.05  -0.03   0.02    -0.08  -0.03   0.04    -0.03  -0.01   0.01
     2   6    -0.07  -0.05   0.03    -0.10  -0.05   0.06    -0.03  -0.01   0.02
     3   6    -0.05  -0.05   0.04    -0.08  -0.05   0.07    -0.02  -0.01   0.02
     4   6    -0.02  -0.03   0.03    -0.03  -0.02   0.05    -0.01  -0.01   0.02
     5   6    -0.00  -0.02   0.01    -0.00   0.00   0.03    -0.00  -0.00   0.01
     6   6    -0.02  -0.01   0.00    -0.03   0.00   0.02    -0.01  -0.00   0.01
     7   6    -0.00   0.00  -0.01    -0.02   0.01   0.00    -0.01   0.00  -0.00
     8   8     0.04  -0.03  -0.04     0.01  -0.00  -0.00     0.01  -0.01   0.01
     9   8     0.03  -0.03  -0.03     0.00  -0.01  -0.01     0.01  -0.02   0.00
    10  16     0.03  -0.03  -0.03     0.00  -0.01  -0.01     0.01  -0.01  -0.00
    11   7     0.02  -0.02  -0.03    -0.00  -0.00  -0.01     0.00  -0.00  -0.00
    12   6    -0.00   0.01   0.09     0.04   0.03  -0.09     0.01   0.02  -0.01
    13   6     0.01   0.01   0.10     0.06   0.03  -0.08     0.02   0.02  -0.00
    14   6     0.04   0.01   0.01     0.05   0.00   0.03     0.02   0.00   0.02
    15   6     0.05   0.00  -0.10     0.03  -0.02   0.13     0.02  -0.01   0.03
    16   6     0.03   0.00  -0.10     0.01  -0.02   0.12     0.01  -0.01   0.02
    17   8    -0.01   0.01  -0.00    -0.02  -0.01   0.00    -0.01  -0.00  -0.00
    18   6     0.00   0.01  -0.01     0.02   0.00   0.01     0.00   0.00   0.00
    19   6    -0.01   0.01  -0.01    -0.01   0.00   0.00    -0.01   0.01  -0.00
    20   8    -0.01   0.01  -0.01    -0.02   0.03  -0.01    -0.01   0.01  -0.01
    21   6    -0.01   0.01  -0.01    -0.02   0.01   0.00    -0.01   0.01  -0.00
    22   7    -0.01   0.01  -0.01    -0.01  -0.00   0.01    -0.01   0.00  -0.00
    23   6    -0.03   0.00   0.03     0.01  -0.01  -0.01    -0.00  -0.00  -0.00
    24   7    -0.01   0.00  -0.00    -0.01   0.00   0.00    -0.01   0.00  -0.00
    25   6    -0.01  -0.01  -0.00    -0.01   0.02   0.00    -0.01   0.01  -0.00
    26   6    -0.02   0.00   0.00    -0.01  -0.00  -0.01    -0.01   0.00  -0.01
    27  15    -0.02  -0.00   0.00    -0.01   0.00  -0.00    -0.01   0.00  -0.00
    28   6    -0.07  -0.01   0.03     0.07  -0.02  -0.00     0.01  -0.01   0.00
    29   6    -0.08  -0.01   0.07     0.10  -0.04  -0.01     0.02  -0.02   0.01
    30   6    -0.04   0.00   0.10     0.07  -0.04  -0.03     0.02  -0.02   0.00
    31   6    -0.01   0.01   0.09     0.01  -0.02  -0.05     0.00  -0.01  -0.00
    32   6     0.00   0.01   0.06    -0.02  -0.00  -0.03    -0.01   0.00  -0.01
    33   6     0.02   0.01  -0.05    -0.01   0.01   0.02    -0.01   0.01   0.00
    34   6     0.02  -0.01  -0.05    -0.01   0.03   0.03    -0.01   0.01   0.01
    35   6    -0.02  -0.04  -0.01     0.00   0.05   0.01    -0.02   0.01   0.01
    36   6    -0.06  -0.06   0.03     0.01   0.05  -0.01    -0.02   0.01   0.01
    37   6    -0.05  -0.04   0.04     0.00   0.03  -0.01    -0.02   0.01   0.00
    38   6    -0.02  -0.04  -0.00    -0.02   0.00  -0.00    -0.01  -0.01  -0.01
    39   6    -0.02  -0.01   0.00    -0.02  -0.02  -0.01    -0.01  -0.01  -0.01
    40   6    -0.03   0.07   0.01    -0.02  -0.04  -0.02    -0.01  -0.01  -0.01
    41   6    -0.03   0.11   0.01    -0.01  -0.05  -0.02    -0.01  -0.00  -0.01
    42   6    -0.03   0.08   0.01    -0.01  -0.02  -0.01    -0.01   0.00  -0.01
    43   1    -0.06  -0.03   0.01    -0.10  -0.03   0.03    -0.03  -0.01   0.01
    44   1    -0.09  -0.06   0.04    -0.15  -0.08   0.07    -0.04  -0.02   0.02
    45   1    -0.06  -0.06   0.05    -0.10  -0.07   0.09    -0.03  -0.02   0.03
    46   1    -0.00  -0.03   0.03    -0.01  -0.02   0.06    -0.00  -0.01   0.02
    47   1    -0.00   0.02  -0.02    -0.02   0.03  -0.00    -0.01   0.01  -0.00
    48   1     0.03  -0.01  -0.04     0.01   0.00  -0.03     0.01   0.00  -0.01
    49   1    -0.02   0.02   0.16     0.05   0.05  -0.17     0.01   0.02  -0.02
    50   1     0.01   0.02   0.18     0.08   0.05  -0.16     0.03   0.02  -0.01
    51   1     0.05   0.01   0.01     0.07   0.00   0.04     0.03   0.00   0.02
    52   1     0.06  -0.00  -0.17     0.02  -0.05   0.22     0.02  -0.02   0.04
    53   1     0.03  -0.00  -0.17    -0.01  -0.04   0.19     0.00  -0.01   0.03
    54   1    -0.10  -0.02   0.01     0.10  -0.03   0.02     0.02  -0.01   0.01
    55   1    -0.11  -0.02   0.07     0.14  -0.05  -0.00     0.04  -0.03   0.01
    56   1    -0.05   0.00   0.12     0.09  -0.05  -0.04     0.03  -0.02   0.00
    57   1     0.02   0.02   0.11    -0.02  -0.02  -0.06    -0.00  -0.00  -0.01
    58   1     0.03   0.02   0.05    -0.07   0.01  -0.04    -0.02   0.01  -0.01
    59   1     0.05   0.04  -0.08    -0.02  -0.00   0.04     0.00   0.01  -0.00
    60   1     0.05   0.01  -0.09    -0.01   0.03   0.05    -0.01   0.01   0.01
    61   1    -0.03  -0.06  -0.01     0.01   0.06   0.01    -0.02   0.01   0.01
    62   1    -0.09  -0.09   0.07     0.01   0.07  -0.03    -0.03   0.01   0.01
    63   1    -0.08  -0.06   0.07     0.00   0.04  -0.03    -0.02   0.01  -0.00
    64   1    -0.02  -0.09  -0.01    -0.02   0.01   0.00    -0.01  -0.01  -0.00
    65   1    -0.02  -0.04  -0.00    -0.02  -0.01  -0.01    -0.01  -0.01  -0.01
    66   1    -0.03   0.09   0.01    -0.02  -0.06  -0.02    -0.01  -0.01  -0.01
    67   1    -0.04   0.17   0.02    -0.01  -0.06  -0.03    -0.01   0.00  -0.01
    68   1    -0.03   0.11   0.02    -0.00  -0.03  -0.02    -0.01   0.01  -0.01
    69   1     0.02  -0.01   0.00     0.04   0.03   0.02     0.01   0.00   0.01
    70   6     0.03  -0.03  -0.03     0.00  -0.00  -0.01     0.01  -0.01  -0.01
    71   6     0.04  -0.01  -0.03     0.01   0.00  -0.02     0.02  -0.01  -0.01
    72   6     0.04  -0.02  -0.03    -0.00   0.01  -0.02     0.00  -0.01  -0.01
    73   6     0.07   0.04  -0.03     0.02   0.02  -0.03     0.02   0.01  -0.02
    74   1     0.03  -0.02  -0.03     0.01  -0.01  -0.02     0.02  -0.01  -0.01
    75   6     0.07   0.03  -0.03     0.01   0.03  -0.02     0.01   0.01  -0.01
    76   1     0.03  -0.04  -0.03    -0.01   0.01  -0.01    -0.00  -0.01  -0.00
    77   6     0.10   0.06  -0.03     0.02   0.04  -0.03     0.02   0.02  -0.02
    78   1     0.09   0.06  -0.03     0.03   0.03  -0.03     0.03   0.01  -0.02
    79   1     0.09   0.04  -0.03     0.01   0.04  -0.02     0.01   0.01  -0.01
    80   6     0.14   0.13  -0.04     0.03   0.07  -0.06     0.05   0.05  -0.01
    81   1     0.06  -0.05   0.12    -0.07  -0.22   0.16     0.19   0.49  -0.32
    82   1     0.32   0.35   0.05     0.28   0.35   0.06    -0.31  -0.31  -0.17
    83   1     0.08   0.14  -0.33    -0.11   0.10  -0.44     0.31  -0.01   0.50
                     10                     11                     12
                      A                      A                      A
 Frequencies --     46.7890                52.1703                59.5872
 Red. masses --      4.6385                 5.1205                 5.0260
 Frc consts  --      0.0060                 0.0082                 0.0105
 IR Inten    --      0.1857                 0.1601                 0.4334
  Atom  AN      X      Y      Z        X      Y      Z        X      Y      Z
     1   6    -0.06  -0.08   0.03    -0.07  -0.06   0.04    -0.06   0.00   0.02
     2   6    -0.10  -0.12   0.03    -0.12  -0.12   0.06    -0.06  -0.01   0.08
     3   6    -0.08  -0.10   0.03    -0.09  -0.10   0.06    -0.00  -0.01   0.10
     4   6    -0.02  -0.03   0.02    -0.00  -0.02   0.05     0.06  -0.02   0.07
     5   6     0.02   0.00   0.02     0.05   0.03   0.03     0.06  -0.01   0.01
     6   6    -0.00  -0.02   0.02     0.02   0.01   0.03     0.00  -0.00  -0.01
     7   6     0.01  -0.01   0.03     0.03   0.02   0.02    -0.00  -0.01  -0.05
     8   8    -0.05  -0.02  -0.05    -0.05   0.03  -0.03    -0.02   0.03   0.04
     9   8    -0.01   0.04  -0.03    -0.01   0.08  -0.02    -0.05  -0.02   0.02
    10  16    -0.02   0.00  -0.03    -0.02   0.05  -0.01    -0.02   0.01   0.01
    11   7    -0.01  -0.02   0.01     0.01   0.01   0.01     0.01  -0.00  -0.04
    12   6     0.00  -0.03  -0.04    -0.06  -0.04   0.05    -0.00  -0.02  -0.01
    13   6    -0.01  -0.03  -0.10    -0.11  -0.04   0.03    -0.02  -0.03   0.10
    14   6    -0.02  -0.01  -0.11    -0.13   0.02  -0.05    -0.03  -0.04   0.16
    15   6    -0.02   0.00  -0.05    -0.09   0.08  -0.10    -0.02  -0.03   0.10
    16   6    -0.01  -0.00   0.01    -0.04   0.07  -0.07    -0.00  -0.02  -0.01
    17   8     0.03  -0.01   0.03     0.06   0.05   0.01     0.00  -0.01  -0.08
    18   6     0.00  -0.02   0.01    -0.02   0.02   0.00     0.01  -0.02  -0.06
    19   6     0.02  -0.02   0.04     0.03   0.02   0.02     0.01  -0.02  -0.09
    20   8     0.02  -0.03   0.05     0.05  -0.02   0.04     0.01  -0.01  -0.09
    21   6     0.01  -0.02   0.04     0.03   0.01   0.03     0.01  -0.02  -0.08
    22   7     0.00  -0.01   0.04     0.02   0.03   0.01     0.01  -0.04  -0.08
    23   6     0.00  -0.01   0.02     0.04   0.03   0.00     0.02  -0.02  -0.02
    24   7     0.01  -0.02   0.04     0.03   0.02   0.01     0.02  -0.03  -0.09
[...]
 Vib (Bot)   44  0.363448D+00         -0.439558         -1.012119
 Vib (Bot)   45  0.360266D+00         -0.443377         -1.020914
 Vib (Bot)   46  0.358708D+00         -0.445259         -1.025246
 Vib (Bot)   47  0.353346D+00         -0.451800         -1.040307
 Vib (Bot)   48  0.351433D+00         -0.454158         -1.045737
 Vib (Bot)   49  0.349084D+00         -0.457070         -1.052442
 Vib (Bot)   50  0.343830D+00         -0.463657         -1.067609
 Vib (Bot)   51  0.336842D+00         -0.472574         -1.088142
 Vib (Bot)   52  0.325442D+00         -0.487526         -1.122571
 Vib (Bot)   53  0.304399D+00         -0.516556         -1.189415
 Vib (Bot)   54  0.294407D+00         -0.531052         -1.222793
 Vib (Bot)   55  0.288474D+00         -0.539893         -1.243151
 Vib (Bot)   56  0.277514D+00         -0.556715         -1.281883
 Vib (Bot)   57  0.267914D+00         -0.572005         -1.317090
 Vib (Bot)   58  0.258119D+00         -0.588181         -1.354336
 Vib (Bot)   59  0.252771D+00         -0.597272         -1.375270
 Vib (Bot)   60  0.249698D+00         -0.602584         -1.387501
 Vib (V=0)                            17.715877         40.792315
 Vib (V=0)    1  0.165779D+02          1.219528          2.808068
 Vib (V=0)    2  0.132770D+02          1.123099          2.586032
 Vib (V=0)    3  0.108517D+02          1.035497          2.384321
 Vib (V=0)    4  0.798627D+01          0.902344          2.077724
 Vib (V=0)    5  0.639601D+01          0.805909          1.855675
 Vib (V=0)    6  0.591557D+01          0.771997          1.777588
 Vib (V=0)    7  0.525276D+01          0.720388          1.658754
 Vib (V=0)    8  0.502404D+01          0.701053          1.614235
 Vib (V=0)    9  0.464961D+01          0.667417          1.536783
 Vib (V=0)   10  0.443030D+01          0.646433          1.488468
 Vib (V=0)   11  0.402954D+01          0.605255          1.393651
 Vib (V=0)   12  0.359653D+01          0.555883          1.279968
 Vib (V=0)   13  0.343260D+01          0.535623          1.233317
 Vib (V=0)   14  0.340093D+01          0.531598          1.224050
 Vib (V=0)   15  0.325861D+01          0.513032          1.181301
 Vib (V=0)   16  0.273941D+01          0.437657          1.007743
 Vib (V=0)   17  0.268276D+01          0.428582          0.986847
 Vib (V=0)   18  0.253593D+01          0.404137          0.930559
 Vib (V=0)   19  0.238174D+01          0.376894          0.867831
 Vib (V=0)   20  0.225715D+01          0.353561          0.814104
 Vib (V=0)   21  0.205696D+01          0.313226          0.721229
 Vib (V=0)   22  0.186719D+01          0.271189          0.624435
 Vib (V=0)   23  0.180149D+01          0.255633          0.588616
 Vib (V=0)   24  0.169308D+01          0.228677          0.526549
 Vib (V=0)   25  0.160297D+01          0.204925          0.471857
 Vib (V=0)   26  0.147133D+01          0.167710          0.386167
 Vib (V=0)   27  0.145875D+01          0.163982          0.377583
 Vib (V=0)   28  0.143726D+01          0.157536          0.362741
 Vib (V=0)   29  0.138652D+01          0.141927          0.326799
 Vib (V=0)   30  0.134558D+01          0.128909          0.296823
 Vib (V=0)   31  0.133696D+01          0.126119          0.290400
 Vib (V=0)   32  0.132060D+01          0.120772          0.278088
 Vib (V=0)   33  0.130798D+01          0.116603          0.268488
 Vib (V=0)   34  0.128964D+01          0.110470          0.254367
 Vib (V=0)   35  0.128457D+01          0.108758          0.250425
 Vib (V=0)   36  0.128009D+01          0.107239          0.246927
 Vib (V=0)   37  0.125703D+01          0.099345          0.228751
 Vib (V=0)   38  0.124073D+01          0.093678          0.215701
 Vib (V=0)   39  0.122853D+01          0.089386          0.205819
 Vib (V=0)   40  0.119311D+01          0.076680          0.176563
 Vib (V=0)   41  0.118156D+01          0.072455          0.166834
 Vib (V=0)   42  0.115020D+01          0.060772          0.139933
 Vib (V=0)   43  0.114052D+01          0.057103          0.131485
 Vib (V=0)   44  0.111814D+01          0.048495          0.111665
 Vib (V=0)   45  0.111627D+01          0.047770          0.109995
 Vib (V=0)   46  0.111536D+01          0.047416          0.109180
 Vib (V=0)   47  0.111225D+01          0.046204          0.106388
 Vib (V=0)   48  0.111115D+01          0.045773          0.105396
 Vib (V=0)   49  0.110980D+01          0.045246          0.104183
 Vib (V=0)   50  0.110681D+01          0.044073          0.101482
 Vib (V=0)   51  0.110288D+01          0.042528          0.097923
 Vib (V=0)   52  0.109658D+01          0.040042          0.092200
 Vib (V=0)   53  0.108537D+01          0.035578          0.081922
 Vib (V=0)   54  0.108024D+01          0.033519          0.077181
 Vib (V=0)   55  0.107725D+01          0.032316          0.074411
 Vib (V=0)   56  0.107185D+01          0.030135          0.069388
 Vib (V=0)   57  0.106725D+01          0.028268          0.065090
 Vib (V=0)   58  0.106269D+01          0.026408          0.060808
 Vib (V=0)   59  0.106026D+01          0.025413          0.058516
 Vib (V=0)   60  0.105888D+01          0.024848          0.057214
 Electronic      0.100000D+01          0.000000          0.000000
 Translational   0.513686D+09          8.710698         20.057123
 Rotational      0.574777D+08          7.759499         17.866907
 ***** Axes restored to original set *****
 -------------------------------------------------------------------
 Center     Atomic                   Forces (Hartrees/Bohr)
 Number     Number              X              Y              Z
 -------------------------------------------------------------------
      1        6          -0.000000775    0.000002962   -0.000000266
      2        6           0.000001162   -0.000000395    0.000000955
      3        6           0.000000843    0.000000048    0.000002544
      4        6          -0.000001082    0.000001257   -0.000000762
      5        6          -0.000000426   -0.000001474   -0.000000516
      6        6          -0.000000355    0.000002465    0.000003457
      7        6           0.000000282   -0.000001159   -0.000000251
      8        8           0.000000482   -0.000004294    0.000002221
      9        8          -0.000001284   -0.000000181   -0.000004179
     10       16           0.000001078    0.000005584    0.000000010
     11        7           0.000000794   -0.000000905   -0.000000230
     12        6           0.000003935   -0.000003804    0.000001001
     13        6           0.000003470    0.000003250    0.000002538
     14        6          -0.000003777   -0.000001291    0.000001099
     15        6           0.000001436   -0.000004387    0.000001140
     16        6           0.000002429    0.000004134    0.000002037
     17        8          -0.000000833   -0.000004557   -0.000003098
     18        6          -0.000005739   -0.000000118    0.000000931
     19        6           0.000004522    0.000000746    0.000000783
     20        8          -0.000003289   -0.000001461   -0.000005784
     21        6          -0.000001210    0.000003023    0.000008657
     22        7           0.000004195    0.000000962   -0.000000996
     23        6          -0.000003654    0.000002301    0.000001241
     24        7          -0.000001550   -0.000001828   -0.000002417
     25        6           0.000000786    0.000009962    0.000003539
     26        6           0.000002385   -0.000002066   -0.000003284
     27       15           0.000001607   -0.000000139    0.000004189
     28        6           0.000000292    0.000000995   -0.000001263
     29        6          -0.000000742    0.000000017   -0.000000469
     30        6           0.000000130    0.000000183   -0.000002192
     31        6          -0.000000310    0.000000340   -0.000002266
     32        6          -0.000000332   -0.000001017   -0.000001113
     33        6           0.000002663   -0.000005234   -0.000001726
     34        6          -0.000002480   -0.000001076   -0.000004527
     35        6          -0.000001435    0.000003227    0.000000075
     36        6           0.000003420   -0.000006157    0.000000904
     37        6          -0.000002065   -0.000004236   -0.000004133
     38        6           0.000000845    0.000001190   -0.000000467
     39        6          -0.000000751    0.000000922    0.000000760
     40        6           0.000000077    0.000000432    0.000001916
     41        6           0.000000065    0.000000988   -0.000003104
     42        6          -0.000002724    0.000001340    0.000000662
     43        1          -0.000000455    0.000001358    0.000000792
     44        1           0.000000173    0.000001390    0.000001424
     45        1           0.000000366    0.000000318    0.000001339
     46        1           0.000000302   -0.000000720    0.000000932
     47        1          -0.000000731    0.000001668   -0.000000169
     48        1          -0.000000166    0.000000334   -0.000000996
     49        1          -0.000000357    0.000000136    0.000001142
     50        1           0.000000184   -0.000000942    0.000001891
     51        1           0.000000807   -0.000000668    0.000002272
     52        1          -0.000000096   -0.000000316    0.000001448
     53        1          -0.000000545   -0.000000312    0.000000815
     54        1          -0.000000895   -0.000000679   -0.000000678
     55        1          -0.000000321    0.000001368   -0.000001395
     56        1          -0.000000034    0.000000717   -0.000001606
     57        1           0.000000091   -0.000000046   -0.000001480
     58        1          -0.000000338   -0.000000484   -0.000001478
     59        1           0.000000158    0.000000232   -0.000001077
     60        1           0.000000148   -0.000000658   -0.000001289
     61        1          -0.000000068   -0.000001976   -0.000001454
     62        1          -0.000000104   -0.000001616   -0.000000746
     63        1           0.000000448   -0.000001209   -0.000000116
     64        1          -0.000000721    0.000001148   -0.000000286
     65        1          -0.000000253    0.000001222    0.000000196
     66        1          -0.000000546    0.000001019   -0.000000131
     67        1          -0.000000480    0.000000213   -0.000000244
     68        1          -0.000000379   -0.000001207   -0.000000209
     69        1           0.000001611    0.000000083   -0.000000144
     70        6          -0.000003367    0.000002345    0.000000766
     71        6           0.000002754   -0.000001509   -0.000000335
     72        6           0.000001391   -0.000001554   -0.000000687
     73        6          -0.000000651    0.000000658    0.000002545
     74        1          -0.000001329    0.000001280    0.000000678
     75        6          -0.000000228   -0.000000015   -0.000000927
     76        1          -0.000000573   -0.000000171   -0.000000732
     77        6           0.000000447   -0.000000784   -0.000001150
     78        1           0.000000484    0.000000515    0.000000348
     79        1           0.000000328   -0.000000802   -0.000000068
     80        6           0.000000410    0.000000366    0.000000874
     81        1           0.000000301   -0.000000032    0.000000724
     82        1           0.000000256   -0.000000700    0.000000367
     83        1          -0.000000108   -0.000000515    0.000001228
 -------------------------------------------------------------------
 Cartesian Forces:  Max     0.000009962 RMS     0.000002007
 FormGI is forming the generalized inverse of G from B-inverse, IUseBI=4.

 ----------------------------------------------------------------------

 Electric dipole moment (input orientation):
 (Debye = 10**-18 statcoulomb cm , SI units = C m)
                  (au)            (Debye)         (10**-30 SI)
   Tot        0.160410D+01      0.407723D+01      0.136002D+02
   x          0.311336D+00      0.791337D+00      0.263962D+01
   y          0.137669D+01      0.349920D+01      0.116721D+02
   z          0.762195D+00      0.193731D+01      0.646215D+01

 Dipole polarizability, Alpha (input orientation).
 (esu units = cm**3 , SI units = C**2 m**2 J**-1)
 Alpha(0;0):
               (au)            (10**-24 esu)      (10**-40 SI)
   iso        0.579322D+03      0.858466D+02      0.955173D+02
   aniso      0.151202D+03      0.224059D+02      0.249299D+02
   xx         0.650587D+03      0.964070D+02      0.107267D+03
   yx        -0.542374D+02     -0.803715D+01     -0.894253D+01
   yy         0.538033D+03      0.797282D+02      0.887096D+02
   zx         0.134178D+02      0.198832D+01      0.221230D+01
   zy         0.256506D+02      0.380103D+01      0.422921D+01
   zz         0.549346D+03      0.814047D+02      0.905750D+02

 ----------------------------------------------------------------------

 Dipole orientation:
     6         -5.75536276          5.51070886         -1.06479511
     6         -7.79992786          6.55452949          0.22544144
     6         -9.09351753          5.12635700          2.01371541
     6         -8.33435898          2.65302917          2.51563483
     6         -6.29254300          1.61433006          1.23277390
     6         -4.99533713          3.04014533         -0.57123240
     6         -2.76627090          1.92698091         -2.00322928
     8         -4.83287530         -3.18284740         -6.65063579
     8         -5.14246529          1.56112311         -7.04085532
    16         -5.33696594         -0.72457669         -5.50332777
     7         -3.36185814         -0.59008168         -3.03316687
     6         -1.15258011          2.64951755          6.25190904
     6         -1.53864499          3.69423559          8.63753605
     6          0.37979980          3.63692320         10.43518313
     6          2.69552953          2.52955015          9.84101546
     6          3.08390204          1.48249000          7.46331790
     8          3.18783384         -1.65713653          3.12471847
     6          1.15820029          1.53247840          5.66001357
     6          1.66955110          0.50951519          3.04076840
     8         -0.65924196          0.12404634          1.72040025
     6         -0.49886272          1.66031451         -0.33556184
     7          1.60224899          2.80522645         -0.64888424
     6          4.17385692         -1.71599504         -2.32190111
     7          3.17876826          2.04200971          1.35096129
     6          6.97394981         -4.00174376          1.52706932
     6          8.16718357          1.08795960          0.75500101
    15          5.33711226         -0.94388502          0.83080458
     6          4.82510336         -0.35537730         -4.48207302
     6          3.78468335         -1.00285897         -6.81127265
     6          2.08116962         -2.99853944         -6.99315418
     6          1.43495936         -4.37322902         -4.83931065
     6          2.47685113         -3.73371742         -2.50945075
     6          8.32318041         -5.21747849         -0.39663617
     6          9.68247355         -7.41564839          0.08429149
     6          9.72617662         -8.43457024          2.51115694
     6          8.40249690         -7.24074099          4.44456916
     6          7.03715392         -5.04226472          3.95636012
     6          7.99627670          3.51160058         -0.30720570
     6         10.12564857          5.03294210         -0.51250412
     6         12.44314329          4.19947970          0.42143480
     6         12.62026765          1.82906517          1.54061335
     6         10.50329169          0.27110347          1.68666673
     1         -4.76054780          6.61957936         -2.47851082
     1         -8.38563986          8.47857924         -0.18011160
     1        -10.69617519          5.93176876          3.01055998
     1         -9.34748186          1.52477045          3.89792776
     1         -2.20423863          3.23216393         -3.50899875
     1         -1.78503903         -1.59574549         -3.50782357
     1         -2.65735272          2.69497158          4.86015126
     1         -3.34732106          4.55375382          9.08524096
     1          0.07607797          4.45199407         12.29367595
     1          4.20121841          2.47865582         11.23397819
     1          4.88988419          0.62328959          7.00529319
     1          6.13834552          1.21424668         -4.36389811
     1          4.29955113          0.06714445         -8.48337087
     1          1.24905171         -3.48414289         -8.80325365
     1          0.10203243         -5.92638089         -4.97062634
     1          1.96086713         -4.80140875         -0.83400105
     1          8.32330113         -4.44474615         -2.29916329
     1         10.70807551         -8.33204060         -1.43860216
     1         10.78582717        -10.15034753          2.89100693
     1          8.42436506         -8.02076054          6.34271612
     1          6.00992969         -4.13861739          5.48165277
     1          6.19096226          4.22029818         -0.96569132
     1          9.96619732          6.88786703         -1.37358500
     1         14.09898821          5.40401250          0.29030180
     1         14.41036457          1.17430978          2.29851888
     1         10.69239956         -1.57607279          2.54743778
     1         -5.72093825         -0.32136256          1.59228909
     6         -8.35569054         -0.75346161         -4.06061590
     6         -9.89673890          1.36605952         -4.23461947
     6         -9.07855513         -2.86290357         -2.66438321
     6        -12.18788424          1.37629373         -2.95467244
     1         -9.28842959          2.99253548         -5.32033220
     6        -11.37487902         -2.81872371         -1.39903101
     1         -7.85431752         -4.50391323         -2.55220965
     6        -12.94711278         -0.69497624         -1.50410964
     1        -13.39189174          3.03506691         -3.06251390
     1        -11.95066657         -4.45308978         -0.29853813
     6        -15.37639556         -0.60663442         -0.02446024
     1        -16.83538631          0.45413036         -1.03399455
     1        -16.09695790         -2.50341726          0.36631477
     1        -15.06904778          0.33679515          1.79488376

 Electric dipole moment (dipole orientation):
 (Debye = 10**-18 statcoulomb cm , SI units = C m)
                  (au)            (Debye)         (10**-30 SI)
   Tot        0.160410D+01      0.407723D+01      0.136002D+02
   x          0.000000D+00      0.000000D+00      0.000000D+00
   y          0.000000D+00      0.000000D+00      0.000000D+00
   z          0.160410D+01      0.407723D+01      0.136002D+02

 Dipole polarizability, Alpha (dipole orientation).
 (esu units = cm**3 , SI units = C**2 m**2 J**-1)
 Alpha(0;0):
               (au)            (10**-24 esu)      (10**-40 SI)
   iso        0.579322D+03      0.858466D+02      0.955173D+02
   aniso      0.151202D+03      0.224059D+02      0.249299D+02
   xx         0.653323D+03      0.968125D+02      0.107718D+03
   yx        -0.485888D+02     -0.720011D+01     -0.801121D+01
   yy         0.534490D+03      0.792032D+02      0.881255D+02
   zx        -0.238684D+02     -0.353693D+01     -0.393536D+01
   zy        -0.228406D+02     -0.338463D+01     -0.376591D+01
   zz         0.550153D+03      0.815242D+02      0.907080D+02

 ----------------------------------------------------------------------

 This type of calculation cannot be archived.


 I LOVE THOSE WHO LONG FOR THE IMPOSSIBLE.

                                 -- GOETHE
 Job cpu time:       0 days  0 hours  0 minutes  2.6 seconds.
 Elapsed time:       0 days  0 hours  0 minutes  0.7 seconds.
 File lengths (MBytes):  RWF=     12 Int=      0 D2E=      0 Chk=     16 Scr=      1
 Normal termination of Gaussian 16 at Sat Apr  4 18:50:39 2020.
