 Entering Gaussian System, Link 0=g16
 Initial command:
 /apps/cent7/gaussian/g16-A.03/g16-haswell/g16/l1.exe "/scratch/brown/finej/0051_imine_mechanism/ts_631gd/acyclic_complete/new_logs_2/Gau-245235.inp" -scrdir="/scratch/brown/finej/0051_imine_mechanism/ts_631gd/acyclic_complete/new_logs_2/"
 Entering Link 1 = /apps/cent7/gaussian/g16-A.03/g16-haswell/g16/l1.exe PID=    245236.
  
 Copyright (c) 1988,1990,1992,1993,1995,1998,2003,2009,2016,
            Gaussian, Inc.  All Rights Reserved.
  
 This is part of the Gaussian(R) 16 program.  It is based on
 the Gaussian(R) 09 system (copyright 2009, Gaussian, Inc.),
 the Gaussian(R) 03 system (copyright 2003, Gaussian, Inc.),
 the Gaussian(R) 98 system (copyright 1998, Gaussian, Inc.),
 the Gaussian(R) 94 system (copyright 1995, Gaussian, Inc.),
 the Gaussian 92(TM) system (copyright 1992, Gaussian, Inc.),
 the Gaussian 90(TM) system (copyright 1990, Gaussian, Inc.),
 the Gaussian 88(TM) system (copyright 1988, Gaussian, Inc.),
 the Gaussian 86(TM) system (copyright 1986, Carnegie Mellon
 University), and the Gaussian 82(TM) system (copyright 1983,
 Carnegie Mellon University). Gaussian is a federally registered
 trademark of Gaussian, Inc.
  
 This software contains proprietary and confidential information,
 including trade secrets, belonging to Gaussian, Inc.
  
 This software is provided under written license and may be
 used, copied, transmitted, or stored only in accord with that
 written license.
  
 The following legend is applicable only to US Government
 contracts under FAR:
  
                    RESTRICTED RIGHTS LEGEND
  
 Use, reproduction and disclosure by the US Government is
 subject to restrictions as set forth in subparagraphs (a)
 and (c) of the Commercial Computer Software - Restricted
 Rights clause in FAR 52.227-19.
  
 Gaussian, Inc.
 340 Quinnipiac St., Bldg. 40, Wallingford CT 06492
  
  
 ---------------------------------------------------------------
 Warning -- This program may not be used in any manner that
 competes with the business of Gaussian, Inc. or will provide
 assistance to any competitor of Gaussian, Inc.  The licensee
 of this program is prohibited from giving any competitor of
 Gaussian, Inc. access to this program.  By using this program,
 the user acknowledges that Gaussian, Inc. is engaged in the
 business of creating and licensing software in the field of
 computational chemistry and represents and warrants to the
 licensee that it is not a competitor of Gaussian, Inc. and that
 it will not use this program in any manner prohibited above.
 ---------------------------------------------------------------
  

 Cite this work as:
 Gaussian 16, Revision A.03,
 M. J. Frisch, G. W. Trucks, H. B. Schlegel, G. E. Scuseria, 
 M. A. Robb, J. R. Cheeseman, G. Scalmani, V. Barone, 
 G. A. Petersson, H. Nakatsuji, X. Li, M. Caricato, A. V. Marenich, 
 J. Bloino, B. G. Janesko, R. Gomperts, B. Mennucci, H. P. Hratchian, 
 J. V. Ortiz, A. F. Izmaylov, J. L. Sonnenberg, D. Williams-Young, 
 F. Ding, F. Lipparini, F. Egidi, J. Goings, B. Peng, A. Petrone, 
 T. Henderson, D. Ranasinghe, V. G. Zakrzewski, J. Gao, N. Rega, 
 G. Zheng, W. Liang, M. Hada, M. Ehara, K. Toyota, R. Fukuda, 
 J. Hasegawa, M. Ishida, T. Nakajima, Y. Honda, O. Kitao, H. Nakai, 
 T. Vreven, K. Throssell, J. A. Montgomery, Jr., J. E. Peralta, 
 F. Ogliaro, M. J. Bearpark, J. J. Heyd, E. N. Brothers, K. N. Kudin, 
 V. N. Staroverov, T. A. Keith, R. Kobayashi, J. Normand, 
 K. Raghavachari, A. P. Rendell, J. C. Burant, S. S. Iyengar, 
 J. Tomasi, M. Cossi, J. M. Millam, M. Klene, C. Adamo, R. Cammi, 
 J. W. Ochterski, R. L. Martin, K. Morokuma, O. Farkas, 
 J. B. Foresman, and D. J. Fox, Gaussian, Inc., Wallingford CT, 2016.
 
 ******************************************
 Gaussian 16:  ES64L-G16RevA.03 25-Dec-2016
                 4-Apr-2020 
 ******************************************
 %nprocshared=4
 Will use up to    4 processors via shared memory.
 %mem=1GB
 %oldchk=chk/acyclic_4.chk
 Copying data from "chk/acyclic_4.chk" to current chk file "/scratch/brown/finej/0051_imine_mechanism/ts_631gd/acyclic_complete/new_logs_2/Gau-245236.chk"
 IOpt=  2 FromEx=T IUOpen= 4 IOptOp= 5 NList=   0 IFRang= 0 IUIn= 4 IUOut= 2.
 ----------------------------------------------------------------------
 # freq=readfc wb97xd/6-31g(d) scrf=solvent=dichloromethane geom=check 
 temperature=263.15
 ----------------------------------------------------------------------
 1/29=2,38=1,112=263150,172=1/1;
 2/12=2,40=1/2;
 7/8=1,25=11/16;
 99/5=2/99;
 --------------
 Intermediate 3
 --------------
 Structure from the checkpoint file:  "/scratch/brown/finej/0051_imine_mechanism/ts_631gd/acyclic_complete/new_logs_2/Gau-245236.chk"
 Charge =  0 Multiplicity = 1
 No Z-Matrix found in chk file; cartesian coordinates used.
  C                                                 3.058523931296      1.039629978058      0.735638063134
  C                                                 3.736035925146      1.780824983426      1.695676063570
  C                                                 4.038246926406      1.214845980518      2.933915059996
  C                                                 3.658847932590     -0.095618019335      3.205952062245
  C                                                 2.987954934938     -0.841417023578      2.238703059208
  C                                                 2.689678932487     -0.282111023073      0.998229061665
  C                                                 1.957430938550     -1.114893026767     -0.048197938573
  O                                                 4.330093938925     -2.001479014316     -2.957128941189
  O                                                 4.111776947651     -3.097130016178     -0.679154940596
  S                                                 4.111477941959     -1.905382015914     -1.519111937203
  N(GFac=0.403761)                                  2.617084935280     -1.221603021655     -1.352600940763
  C                                                -1.946866078090      2.971482956803     -2.151187937251
  C                                                -2.174348084369      4.333233955985     -1.970195937641
  C                                                -1.768073087489      4.956507957287     -0.793595936669
  C                                                -1.129109081102      4.213900964135      0.200006061310
  C                                                -0.905215076240      2.853855963473      0.017861061447
  O                                                -1.516577069609      0.224603960254     -2.451466936743
  C                                                -1.317078073325      2.226698960319     -1.159044940640
  C                                                -1.158004069325      0.735142960655     -1.381752937597
  O                                                 0.525655931103      0.507589968779     -1.123243937986
  C                                                 0.603317937065     -0.507528031383     -0.311447938524
  N(GFac=0.403761)                                 -0.447000063529     -0.934264036317      0.301293061321
  C                                                -3.321539057234     -2.213092047411     -0.401532938561
  N(GFac=0.403761)                                 -1.473209064661     -0.033462039331     -0.079771938331
  C                                                -4.127408067294      0.647873948520     -0.452079938339
  C                                                -3.260002067147     -0.572835043941      2.042437063210
  P                                                -3.002794065623     -0.562892046556      0.255437061410
  C                                                -4.135896054896     -3.126145052092      0.275962061565
  C                                                -4.366311047312     -4.381465048402     -0.276132938572
  C                                                -3.781373045875     -4.726359050329     -1.492766939718
  C                                                -2.962460049367     -3.818888044980     -2.161275938762
  C                                                -2.724765054947     -2.559986042809     -1.620024935929
  C                                                -4.739002066677      0.414067947848     -1.685306940763
  C                                                -5.534644095334      1.402488943250     -2.253990940011
  C                                                -5.715024100989      2.616832942006     -1.596608939598
  C                                                -5.105121076797      2.849621947153     -0.365764938573
  C                                                -4.311121074465      1.867204950341      0.210320061707
  C                                                -2.172519064300     -0.639879040561      2.919071062426
  C                                                -2.398655065874     -0.656233040900      4.291732061436
  C                                                -3.698085067087     -0.611017049429      4.790290062912
  C                                                -4.781744066076     -0.542497050551      3.917327061260
  C                                                -4.566860065402     -0.518953051756      2.543970061924
  H                                                 2.822563927614      1.484584978316     -0.226373938694
  H                                                 4.031784920269      2.802489984033      1.476851063151
  H                                                 4.569865928029      1.795280986256      3.682111061321
  H                                                 3.891205932844     -0.543489017290      4.167541059920
  H                                                 1.808203942736     -2.125322028245      0.337280061297
  H                                                 2.457498933927     -0.432578024101     -1.973166939590
  H                                                -2.273704077622      2.462786955866     -3.051738936614
  H                                                -2.676235083723      4.905637957922     -2.744950941008
  H                                                -1.948112090747      6.017799973411     -0.647990937921
  H                                                -0.807681087643      4.696828961228      1.118390061213
  H                                                -0.415622075798      2.270677966392      0.792144060808
  H                                                -4.581788055305     -2.869997052449      1.231757060386
  H                                                -4.996804047976     -5.092343051954      0.247991061264
  H                                                -3.959647044581     -5.709288056379     -1.917839938158
  H                                                -2.501058050047     -4.093112044865     -3.104501936873
  H                                                -2.089417059800     -1.837016043629     -2.129098937444
  H                                                -4.587992064067     -0.526941051689     -2.203644940787
  H                                                -6.010702073777      1.224143944384     -3.212538936175
  H                                                -6.333582097588      3.387145939468     -2.046676940957
  H                                                -5.239488080440      3.798981944710      0.141544061677
  H                                                -3.824536073258      2.055060951804      1.162037063246
  H                                                -1.162076066507     -0.682099038180      2.526930063597
  H                                                -1.554940064198     -0.703809037524      4.972473060503
  H                                                -3.867798067152     -0.624380049990      5.862380041276
  H                                                -5.794477083547     -0.499074056394      4.304285060355
  H                                                -5.415437078607     -0.443842055067      1.869601060281
  H                                                 2.705056939617     -1.870166024205      2.446469060268
  C                                                 5.316055934500     -0.773863013679     -0.866358940901
  C                                                 5.852646919012     -0.994121007997      0.397834061431
  C                                                 5.638641934441      0.367227988540     -1.595671936094
  C                                                 6.708705938316     -0.046586007082      0.941232061624
  H                                                 5.588150923082     -1.887659013330      0.950956063298
  C                                                 6.494706933481      1.306562989679     -1.034878937455
  H                                                 5.228292931446      0.521708987216     -2.588586938754
  C                                                 7.029673925913      1.121108996392      0.243230061305
  H                                                 7.121560949986     -0.209203005245      1.932690059502
  H                                                 6.746888922793      2.200509990737     -1.598229936397
  C                                                 7.906960941559      2.168407999566      0.876943063117
  H                                                 7.333742902057      2.748660995743      1.609871063633
  H                                                 8.749411909817      1.713844000812      1.407123059560
  H                                                 8.302117935528      2.866047999247      0.133648061402
 Recover connectivity data from disk.
 Stoichiometry    C40H34N3O4PS
 Framework group  C1[X(C40H34N3O4PS)]
 Deg. of freedom   243
 Full point group                 C1      NOp   1
 Largest Abelian subgroup         C1      NOp   1
 Largest concise Abelian subgroup C1      NOp   1
                         Standard orientation:                         
 ---------------------------------------------------------------------
 Center     Atomic      Atomic             Coordinates (Angstroms)
 Number     Number       Type             X           Y           Z
 ---------------------------------------------------------------------
      1          6           0        3.058524    1.039630    0.735638
      2          6           0        3.736036    1.780825    1.695676
      3          6           0        4.038247    1.214846    2.933915
      4          6           0        3.658848   -0.095618    3.205952
      5          6           0        2.987955   -0.841417    2.238703
      6          6           0        2.689679   -0.282111    0.998229
      7          6           0        1.957431   -1.114893   -0.048198
      8          8           0        4.330094   -2.001479   -2.957129
      9          8           0        4.111777   -3.097130   -0.679155
     10         16           0        4.111478   -1.905382   -1.519112
     11          7           0        2.617085   -1.221603   -1.352601
     12          6           0       -1.946866    2.971483   -2.151188
     13          6           0       -2.174348    4.333234   -1.970196
     14          6           0       -1.768073    4.956508   -0.793596
     15          6           0       -1.129109    4.213901    0.200006
     16          6           0       -0.905215    2.853856    0.017861
     17          8           0       -1.516577    0.224604   -2.451467
     18          6           0       -1.317078    2.226699   -1.159045
     19          6           0       -1.158004    0.735143   -1.381753
     20          8           0        0.525656    0.507590   -1.123244
     21          6           0        0.603318   -0.507528   -0.311448
     22          7           0       -0.447000   -0.934264    0.301293
     23          6           0       -3.321539   -2.213092   -0.401533
     24          7           0       -1.473209   -0.033462   -0.079772
     25          6           0       -4.127408    0.647874   -0.452080
     26          6           0       -3.260002   -0.572835    2.042437
     27         15           0       -3.002794   -0.562892    0.255437
     28          6           0       -4.135896   -3.126145    0.275962
     29          6           0       -4.366311   -4.381465   -0.276133
     30          6           0       -3.781373   -4.726359   -1.492767
     31          6           0       -2.962460   -3.818888   -2.161276
     32          6           0       -2.724765   -2.559986   -1.620025
     33          6           0       -4.739002    0.414068   -1.685307
     34          6           0       -5.534644    1.402489   -2.253991
     35          6           0       -5.715024    2.616833   -1.596609
     36          6           0       -5.105121    2.849622   -0.365765
     37          6           0       -4.311121    1.867205    0.210320
     38          6           0       -2.172519   -0.639879    2.919071
     39          6           0       -2.398655   -0.656233    4.291732
     40          6           0       -3.698085   -0.611017    4.790290
     41          6           0       -4.781744   -0.542497    3.917327
     42          6           0       -4.566860   -0.518953    2.543970
     43          1           0        2.822564    1.484585   -0.226374
     44          1           0        4.031785    2.802490    1.476851
     45          1           0        4.569866    1.795281    3.682111
     46          1           0        3.891206   -0.543489    4.167541
     47          1           0        1.808204   -2.125322    0.337280
     48          1           0        2.457499   -0.432578   -1.973167
     49          1           0       -2.273704    2.462787   -3.051739
     50          1           0       -2.676235    4.905638   -2.744951
     51          1           0       -1.948112    6.017800   -0.647991
     52          1           0       -0.807681    4.696829    1.118390
     53          1           0       -0.415622    2.270678    0.792144
     54          1           0       -4.581788   -2.869997    1.231757
     55          1           0       -4.996804   -5.092343    0.247991
     56          1           0       -3.959647   -5.709288   -1.917840
     57          1           0       -2.501058   -4.093112   -3.104502
     58          1           0       -2.089417   -1.837016   -2.129099
     59          1           0       -4.587992   -0.526941   -2.203645
     60          1           0       -6.010702    1.224144   -3.212539
     61          1           0       -6.333582    3.387146   -2.046677
     62          1           0       -5.239488    3.798982    0.141544
     63          1           0       -3.824536    2.055061    1.162037
     64          1           0       -1.162076   -0.682099    2.526930
     65          1           0       -1.554940   -0.703809    4.972473
     66          1           0       -3.867798   -0.624380    5.862380
     67          1           0       -5.794477   -0.499074    4.304285
     68          1           0       -5.415437   -0.443842    1.869601
     69          1           0        2.705057   -1.870166    2.446469
     70          6           0        5.316056   -0.773863   -0.866359
     71          6           0        5.852647   -0.994121    0.397834
     72          6           0        5.638642    0.367228   -1.595672
     73          6           0        6.708706   -0.046586    0.941232
     74          1           0        5.588151   -1.887659    0.950956
     75          6           0        6.494707    1.306563   -1.034879
     76          1           0        5.228293    0.521709   -2.588587
     77          6           0        7.029674    1.121109    0.243230
     78          1           0        7.121561   -0.209203    1.932690
     79          1           0        6.746889    2.200510   -1.598230
     80          6           0        7.906961    2.168408    0.876943
     81          1           0        7.333743    2.748661    1.609871
     82          1           0        8.749412    1.713844    1.407123
     83          1           0        8.302118    2.866048    0.133648
 ---------------------------------------------------------------------
 Rotational constants (GHZ):           0.0942397           0.0393148           0.0371094
 Electric field and nuclear coordinate derivatives read from checkpoint file.
 Rotating derivatives to standard orientation.
 Full mass-weighted force constant matrix:
 Low frequencies ---   -3.6420   -1.7147   -0.0167   -0.0053    0.0082    3.5909
 Low frequencies ---    8.1578   12.6680   16.7030
 Diagonal vibrational polarizability:
     1589.1157320     284.7410708     712.1277233
 Harmonic frequencies (cm**-1), IR intensities (KM/Mole), Raman scattering
 activities (A**4/AMU), depolarization ratios for plane and unpolarized
 incident light, reduced masses (AMU), force constants (mDyne/A),
 and normal coordinates:
                      1                      2                      3
                      A                      A                      A
 Frequencies --      7.1979                12.6125                16.6027
 Red. masses --      5.9263                 4.4945                 4.2331
 Frc consts  --      0.0002                 0.0004                 0.0007
 IR Inten    --      2.9079                 0.5497                 0.5222
  Atom  AN      X      Y      Z        X      Y      Z        X      Y      Z
     1   6    -0.04  -0.05   0.04    -0.04  -0.05   0.05    -0.03   0.03  -0.08
     2   6    -0.07  -0.08   0.08    -0.04  -0.06   0.06    -0.06   0.08  -0.10
     3   6    -0.08  -0.13   0.06    -0.01  -0.08   0.04    -0.10   0.14  -0.06
     4   6    -0.07  -0.15   0.00     0.03  -0.10   0.01    -0.09   0.15  -0.02
     5   6    -0.05  -0.12  -0.04     0.03  -0.09   0.01    -0.06   0.10  -0.00
     6   6    -0.03  -0.07  -0.02    -0.01  -0.06   0.03    -0.02   0.04  -0.04
     7   6    -0.00  -0.03  -0.07    -0.01  -0.06   0.02     0.01  -0.01  -0.02
     8   8     0.07   0.09  -0.04     0.01  -0.04   0.03     0.05  -0.05   0.03
     9   8     0.04   0.01  -0.08     0.06   0.01   0.06     0.02  -0.01   0.05
    10  16     0.04   0.04  -0.05     0.02  -0.01   0.03     0.03  -0.03   0.03
    11   7     0.03   0.02  -0.06    -0.00  -0.05   0.02     0.02  -0.03  -0.01
    12   6    -0.02  -0.01  -0.05     0.06  -0.02   0.01     0.01  -0.01   0.01
    13   6    -0.01  -0.01  -0.05     0.08  -0.01   0.00     0.04  -0.01   0.02
    14   6     0.00  -0.01  -0.05     0.10  -0.02   0.00     0.08  -0.02   0.01
    15   6     0.00  -0.02  -0.06     0.09  -0.03  -0.00     0.10  -0.04  -0.01
    16   6    -0.01  -0.02  -0.06     0.06  -0.03   0.00     0.07  -0.04  -0.02
    17   8    -0.04  -0.01  -0.05     0.01  -0.02   0.01    -0.03  -0.01  -0.02
    18   6    -0.02  -0.01  -0.06     0.05  -0.03   0.01     0.03  -0.03  -0.01
    19   6    -0.04  -0.01  -0.05     0.03  -0.03   0.01     0.00  -0.03  -0.03
    20   8     0.01  -0.01  -0.07     0.01  -0.06   0.00    -0.01  -0.05  -0.06
    21   6     0.00  -0.02  -0.08    -0.00  -0.05   0.01    -0.00  -0.04  -0.04
    22   7     0.00  -0.02  -0.08    -0.01  -0.03   0.02     0.01  -0.02  -0.02
    23   6    -0.02  -0.00   0.03    -0.03   0.00  -0.00    -0.03  -0.00  -0.02
    24   7     0.00  -0.01  -0.06     0.01  -0.02   0.01     0.00  -0.03  -0.02
    25   6    -0.01  -0.00   0.01     0.02   0.02  -0.00     0.01   0.01   0.03
    26   6     0.06   0.04   0.00    -0.02  -0.00  -0.00     0.03  -0.03  -0.00
    27  15     0.01   0.00  -0.00    -0.00  -0.00  -0.00     0.00  -0.02  -0.00
    28   6    -0.00   0.01   0.06    -0.05   0.02  -0.01    -0.03  -0.00  -0.02
    29   6    -0.02   0.00   0.08    -0.06   0.02  -0.01    -0.06   0.01  -0.03
    30   6    -0.06  -0.01   0.07    -0.06   0.01  -0.01    -0.09   0.02  -0.04
    31   6    -0.07  -0.02   0.03    -0.05   0.00  -0.01    -0.09   0.01  -0.05
    32   6    -0.05  -0.02   0.01    -0.03  -0.00  -0.00    -0.06   0.00  -0.03
    33   6    -0.02  -0.01   0.02     0.02   0.03  -0.00    -0.02   0.03   0.04
    34   6    -0.03  -0.01   0.02     0.03   0.04  -0.00    -0.02   0.05   0.07
    35   6    -0.02  -0.01   0.02     0.05   0.04  -0.01     0.02   0.05   0.08
    36   6    -0.01  -0.00   0.01     0.06   0.03  -0.00     0.05   0.02   0.07
    37   6     0.00   0.00   0.00     0.04   0.02  -0.00     0.04   0.01   0.04
    38   6     0.09   0.08  -0.03    -0.02  -0.02   0.01     0.04  -0.06  -0.01
    39   6     0.14   0.11  -0.02    -0.03  -0.02   0.00     0.05  -0.07  -0.01
    40   6     0.15   0.10   0.02    -0.04  -0.00  -0.00     0.06  -0.06   0.00
    41   6     0.12   0.06   0.05    -0.03   0.02  -0.01     0.05  -0.04   0.02
    42   6     0.08   0.03   0.04    -0.02   0.02  -0.01     0.03  -0.02   0.02
    43   1    -0.04  -0.02   0.06    -0.07  -0.03   0.07    -0.00  -0.01  -0.11
    44   1    -0.08  -0.07   0.13    -0.07  -0.04   0.08    -0.07   0.08  -0.13
    45   1    -0.10  -0.16   0.10    -0.01  -0.09   0.04    -0.12   0.18  -0.07
    46   1    -0.08  -0.18  -0.01     0.05  -0.12  -0.00    -0.12   0.19   0.01
    47   1    -0.01  -0.05  -0.11    -0.01  -0.06   0.01     0.02   0.00   0.01
    48   1     0.03   0.03  -0.04    -0.02  -0.06   0.01     0.03  -0.04  -0.03
    49   1    -0.03  -0.00  -0.05     0.05  -0.02   0.01    -0.02   0.00   0.02
    50   1    -0.01  -0.00  -0.05     0.09  -0.01   0.00     0.03   0.01   0.04
    51   1     0.01  -0.01  -0.05     0.12  -0.01  -0.00     0.11  -0.02   0.02
    52   1     0.01  -0.02  -0.06     0.10  -0.03  -0.00     0.13  -0.05  -0.01
    53   1    -0.01  -0.02  -0.06     0.06  -0.04   0.00     0.08  -0.05  -0.04
    54   1     0.03   0.02   0.07    -0.05   0.02  -0.01    -0.01  -0.01  -0.00
    55   1    -0.01   0.01   0.11    -0.08   0.03  -0.02    -0.06   0.01  -0.03
    56   1    -0.07  -0.02   0.08    -0.08   0.02  -0.01    -0.11   0.03  -0.05
    57   1    -0.10  -0.03   0.02    -0.05  -0.00  -0.00    -0.11   0.02  -0.06
    58   1    -0.06  -0.03  -0.01    -0.01  -0.01   0.00    -0.06   0.00  -0.04
    59   1    -0.03  -0.01   0.02     0.00   0.03  -0.00    -0.04   0.04   0.02
    60   1    -0.04  -0.02   0.03     0.03   0.05  -0.01    -0.04   0.07   0.07
    61   1    -0.03  -0.01   0.02     0.07   0.05  -0.01     0.02   0.06   0.10
    62   1     0.00   0.00   0.01     0.07   0.04  -0.00     0.07   0.02   0.08
    63   1     0.01   0.01  -0.00     0.04   0.01  -0.00     0.07  -0.01   0.04
    64   1     0.08   0.09  -0.06    -0.02  -0.04   0.01     0.03  -0.06  -0.03
    65   1     0.16   0.15  -0.05    -0.04  -0.04   0.01     0.06  -0.09  -0.02
    66   1     0.19   0.13   0.02    -0.04  -0.00  -0.01     0.07  -0.07   0.01
    67   1     0.14   0.05   0.08    -0.03   0.04  -0.02     0.05  -0.03   0.03
    68   1     0.05  -0.01   0.07    -0.01   0.04  -0.02     0.03  -0.00   0.03
    69   1    -0.04  -0.13  -0.09     0.06  -0.10  -0.01    -0.05   0.11   0.03
    70   6     0.01   0.04   0.02    -0.01   0.05  -0.01     0.01  -0.01   0.03
    71   6    -0.00  -0.00   0.02     0.03   0.09  -0.02    -0.03   0.02   0.05
    72   6     0.00   0.07   0.06    -0.08   0.05  -0.03     0.03  -0.03   0.01
    73   6    -0.03  -0.01   0.06    -0.00   0.13  -0.06    -0.04   0.04   0.05
    74   1     0.00  -0.03  -0.02     0.08   0.09  -0.00    -0.04   0.03   0.07
    75   6    -0.02   0.06   0.11    -0.11   0.10  -0.07     0.02  -0.02   0.01
    76   1     0.01   0.10   0.06    -0.11   0.03  -0.03     0.06  -0.06  -0.01
    77   6    -0.03   0.02   0.11    -0.07   0.14  -0.08    -0.02   0.02   0.03
    78   1    -0.04  -0.04   0.06     0.03   0.17  -0.06    -0.07   0.06   0.07
    79   1    -0.03   0.09   0.15    -0.17   0.11  -0.08     0.03  -0.03  -0.01
    80   6    -0.06   0.02   0.16    -0.09   0.18  -0.11    -0.06   0.05   0.03
    81   1    -0.12   0.05   0.10    -0.02  -0.01   0.09    -0.17   0.25  -0.22
    82   1    -0.12   0.01   0.25     0.08   0.22  -0.35    -0.23   0.07   0.32
    83   1     0.02  -0.01   0.18    -0.34   0.33  -0.10     0.18  -0.14  -0.01
                      4                      5                      6
                      A                      A                      A
 Frequencies --     22.2838                25.7121                27.7919
 Red. masses --      1.1490                 5.2596                 5.8058
 Frc consts  --      0.0003                 0.0020                 0.0026
 IR Inten    --      0.3628                 0.6001                 4.7758
  Atom  AN      X      Y      Z        X      Y      Z        X      Y      Z
     1   6    -0.00  -0.01   0.02    -0.01  -0.01  -0.02    -0.03   0.00  -0.04
     2   6     0.00  -0.02   0.02    -0.02  -0.00  -0.03    -0.05   0.02  -0.04
     3   6     0.02  -0.03   0.01    -0.03   0.01  -0.02    -0.06   0.04  -0.03
     4   6     0.02  -0.03   0.00    -0.04   0.02  -0.00    -0.05   0.04  -0.02
     5   6     0.02  -0.02  -0.00    -0.03   0.01  -0.00    -0.03   0.02  -0.02
     6   6     0.00  -0.01   0.01    -0.01  -0.01  -0.01    -0.01  -0.00  -0.03
     7   6    -0.00  -0.01   0.01    -0.01  -0.02  -0.01    -0.01  -0.01  -0.03
     8   8    -0.01   0.00  -0.00     0.02  -0.08   0.03    -0.04   0.07  -0.08
     9   8     0.00   0.00  -0.00    -0.00  -0.02   0.06    -0.01  -0.02  -0.12
    10  16    -0.00   0.00  -0.00     0.00  -0.04   0.03    -0.02   0.02  -0.08
    11   7    -0.00  -0.00   0.00     0.00  -0.04  -0.00    -0.03   0.00  -0.04
    12   6     0.01   0.00   0.00     0.01   0.07   0.10     0.04   0.02   0.06
    13   6     0.01   0.00   0.00     0.02   0.06   0.17     0.10   0.03   0.05
    14   6     0.00   0.00   0.00     0.02  -0.01   0.21     0.20   0.03   0.02
    15   6     0.00   0.00   0.01     0.01  -0.06   0.17     0.23   0.02  -0.01
    16   6     0.00   0.00   0.01    -0.00  -0.05   0.10     0.16   0.01  -0.00
    17   8     0.01   0.00   0.01    -0.01   0.07  -0.03    -0.04   0.01   0.04
    18   6     0.00   0.00   0.01     0.00   0.01   0.06     0.07   0.01   0.03
    19   6     0.01   0.00   0.01    -0.02   0.02  -0.01     0.03  -0.00   0.02
    20   8     0.00   0.00   0.01     0.01  -0.00  -0.01    -0.04  -0.05  -0.03
    21   6    -0.00  -0.00   0.01    -0.00  -0.01  -0.03    -0.02  -0.03  -0.00
    22   7    -0.00   0.00   0.01    -0.01  -0.03  -0.05    -0.00   0.01   0.05
    23   6     0.00   0.00   0.00     0.01  -0.02  -0.02     0.04  -0.01   0.03
    24   7     0.00   0.00   0.01    -0.01  -0.02  -0.04     0.01   0.02   0.05
    25   6     0.00   0.00  -0.00    -0.02  -0.02  -0.04     0.00  -0.01  -0.01
    26   6    -0.01   0.00   0.00     0.01   0.02  -0.03    -0.04   0.01   0.01
    27  15    -0.00   0.00   0.00    -0.01  -0.01  -0.03     0.00   0.00   0.02
    28   6     0.00   0.00   0.00     0.05  -0.05   0.00     0.08  -0.03   0.05
    29   6     0.01  -0.00   0.00     0.07  -0.05  -0.00     0.13  -0.05   0.08
    30   6     0.01  -0.00   0.01     0.04  -0.02  -0.02     0.14  -0.05   0.08
    31   6     0.01  -0.00   0.01    -0.00   0.01  -0.04     0.10  -0.03   0.06
    32   6     0.01  -0.00   0.01    -0.02   0.01  -0.04     0.04  -0.00   0.03
    33   6     0.01  -0.00  -0.01     0.01  -0.02  -0.05    -0.02  -0.04   0.01
    34   6     0.01  -0.00  -0.01    -0.00  -0.03  -0.05    -0.03  -0.05   0.00
    35   6     0.01  -0.00  -0.01    -0.03  -0.04  -0.04    -0.01  -0.03  -0.03
    36   6     0.00   0.00  -0.01    -0.05  -0.04  -0.03     0.02   0.00  -0.05
    37   6    -0.00   0.00  -0.01    -0.05  -0.04  -0.02     0.02   0.01  -0.04
    38   6    -0.01   0.00   0.01     0.03   0.18  -0.04    -0.06  -0.00   0.04
    39   6    -0.02   0.00   0.00     0.05   0.25  -0.03    -0.10  -0.00   0.03
    40   6    -0.02   0.01  -0.00     0.05   0.16  -0.02    -0.11   0.01  -0.00
    41   6    -0.02   0.01  -0.01     0.03   0.00  -0.01    -0.09   0.02  -0.03
    42   6    -0.01   0.01  -0.01     0.01  -0.06  -0.02    -0.05   0.02  -0.02
    43   1    -0.01  -0.00   0.02     0.00  -0.02  -0.03    -0.02  -0.01  -0.05
    44   1    -0.00  -0.01   0.02    -0.01  -0.01  -0.03    -0.06   0.02  -0.05
    45   1     0.02  -0.03   0.01    -0.04   0.02  -0.02    -0.08   0.05  -0.03
    46   1     0.03  -0.04  -0.01    -0.05   0.03   0.00    -0.06   0.05  -0.01
    47   1    -0.00  -0.01   0.00    -0.02  -0.01   0.00     0.02  -0.02  -0.03
    48   1    -0.01   0.00   0.01     0.02  -0.04  -0.01    -0.04   0.01  -0.03
    49   1     0.01  -0.00   0.00     0.01   0.12   0.07    -0.03   0.02   0.08
    50   1     0.01   0.00   0.00     0.03   0.11   0.20     0.08   0.04   0.08
    51   1     0.00   0.00   0.00     0.02  -0.01   0.27     0.25   0.04   0.02
    52   1    -0.00   0.00   0.01     0.00  -0.12   0.20     0.30   0.01  -0.03
    53   1    -0.00   0.00   0.01    -0.01  -0.10   0.07     0.19  -0.00  -0.02
    54   1    -0.00   0.00  -0.00     0.08  -0.06   0.02     0.08  -0.03   0.05
    55   1     0.00  -0.00   0.00     0.11  -0.07   0.01     0.17  -0.07   0.10
    56   1     0.01  -0.00   0.01     0.06  -0.02  -0.02     0.18  -0.07   0.10
    57   1     0.02  -0.00   0.01    -0.02   0.03  -0.06     0.10  -0.02   0.06
    58   1     0.01  -0.00   0.01    -0.05   0.03  -0.05     0.01   0.01   0.02
    59   1     0.01  -0.00  -0.00     0.03  -0.01  -0.05    -0.04  -0.05   0.04
    60   1     0.01  -0.01  -0.01     0.02  -0.03  -0.06    -0.06  -0.08   0.02
    61   1     0.01  -0.00  -0.02    -0.04  -0.04  -0.04    -0.02  -0.04  -0.03
    62   1    -0.00   0.00  -0.02    -0.08  -0.05  -0.02     0.03   0.02  -0.07
    63   1    -0.01   0.00  -0.01    -0.06  -0.04  -0.02     0.05   0.04  -0.05
    64   1    -0.01   0.00   0.01     0.03   0.25  -0.05    -0.05  -0.01   0.06
    65   1    -0.02   0.00   0.01     0.06   0.37  -0.04    -0.11  -0.02   0.05
    66   1    -0.03   0.01  -0.00     0.06   0.21  -0.02    -0.13   0.01  -0.01
    67   1    -0.02   0.01  -0.01     0.03  -0.06  -0.00    -0.10   0.03  -0.05
    68   1    -0.01   0.01  -0.01    -0.00  -0.17  -0.01    -0.03   0.03  -0.04
    69   1     0.02  -0.03  -0.01    -0.03   0.01   0.01    -0.02   0.02  -0.02
    70   6    -0.00   0.01  -0.01    -0.00  -0.02   0.00    -0.03  -0.00  -0.04
    71   6     0.01   0.00  -0.01    -0.01   0.01   0.01    -0.05  -0.03  -0.03
    72   6    -0.01   0.01  -0.01    -0.00  -0.04  -0.02    -0.03   0.02   0.00
    73   6     0.01   0.00  -0.02    -0.01   0.03  -0.01    -0.07  -0.04   0.01
    74   1     0.01   0.00  -0.01    -0.00   0.02   0.03    -0.05  -0.05  -0.06
    75   6    -0.01   0.01  -0.01    -0.01  -0.02  -0.04    -0.05   0.02   0.04
    76   1    -0.02   0.01  -0.01    -0.00  -0.07  -0.03    -0.01   0.05  -0.00
    77   6     0.00   0.01  -0.02    -0.02   0.01  -0.04    -0.07  -0.01   0.05
    78   1     0.02  -0.00  -0.02    -0.02   0.05  -0.00    -0.09  -0.06   0.01
    79   1    -0.01   0.01  -0.01    -0.01  -0.03  -0.06    -0.05   0.04   0.08
    80   6    -0.02   0.03  -0.02    -0.02   0.03  -0.06    -0.10  -0.02   0.10
    81   1    -0.19   0.40  -0.44    -0.02   0.03  -0.05    -0.11  -0.11   0.17
    82   1    -0.32   0.03   0.46    -0.01   0.05  -0.07    -0.06  -0.02   0.04
    83   1     0.41  -0.30  -0.10    -0.05   0.03  -0.07    -0.16   0.06   0.14
                      7                      8                      9
                      A                      A                      A
 Frequencies --     32.7212                40.4172                42.4661
 Red. masses --      6.4242                 5.1342                 4.4259
 Frc consts  --      0.0041                 0.0049                 0.0047
 IR Inten    --      2.6190                 0.4817                 1.2478
  Atom  AN      X      Y      Z        X      Y      Z        X      Y      Z
     1   6    -0.02  -0.02   0.04    -0.03   0.01   0.02    -0.01   0.00   0.02
     2   6    -0.01  -0.05   0.06    -0.01   0.00   0.01     0.00   0.00   0.01
     3   6    -0.01  -0.09   0.05     0.03  -0.02  -0.01     0.03  -0.01   0.00
     4   6    -0.02  -0.09   0.01     0.04  -0.02  -0.01     0.04  -0.01   0.00
     5   6    -0.03  -0.06  -0.00     0.02  -0.01  -0.01     0.03  -0.01   0.01
     6   6    -0.03  -0.02   0.01    -0.01   0.00   0.01     0.00  -0.00   0.02
     7   6    -0.04   0.01  -0.01    -0.00   0.01  -0.00    -0.00  -0.00   0.02
     8   8     0.02  -0.13   0.09     0.05   0.08   0.02    -0.02   0.03   0.00
     9   8    -0.05  -0.01   0.14     0.04   0.06   0.01     0.00   0.01  -0.01
    10  16    -0.01  -0.05   0.08     0.03   0.07   0.02    -0.01   0.01   0.00
    11   7    -0.00  -0.02   0.01     0.02   0.03   0.01    -0.01   0.00   0.02
    12   6    -0.06   0.08  -0.03    -0.02   0.01   0.05    -0.03  -0.06  -0.03
    13   6    -0.01   0.08  -0.04     0.02   0.01   0.06    -0.02  -0.06  -0.08
    14   6     0.07   0.09  -0.07     0.10  -0.00   0.05     0.03  -0.01  -0.12
    15   6     0.10   0.09  -0.09     0.13  -0.02   0.01     0.07   0.03  -0.12
    16   6     0.05   0.08  -0.08     0.08  -0.03  -0.01     0.06   0.03  -0.07
    17   8    -0.08   0.07  -0.03    -0.06   0.00  -0.00     0.01  -0.05   0.02
    18   6    -0.02   0.08  -0.05     0.01  -0.01   0.01     0.01  -0.02  -0.03
    19   6    -0.08   0.07  -0.03    -0.03  -0.01  -0.01     0.03  -0.03   0.01
    20   8     0.02   0.05  -0.05    -0.02  -0.03  -0.03    -0.02  -0.02   0.01
    21   6    -0.01   0.06  -0.04    -0.01  -0.01  -0.01    -0.01  -0.02   0.03
    22   7    -0.02   0.08  -0.04    -0.01  -0.00   0.00    -0.00  -0.00   0.05
    23   6     0.04   0.02  -0.02    -0.04  -0.02   0.00     0.00  -0.01  -0.02
    24   7    -0.02   0.08  -0.04    -0.02  -0.02  -0.01     0.00  -0.00   0.03
    25   6    -0.05   0.01   0.01    -0.03  -0.03  -0.02     0.00  -0.00   0.03
    26   6     0.03  -0.00  -0.02    -0.03   0.00  -0.01    -0.02  -0.02   0.00
    27  15    -0.00   0.03  -0.02    -0.02  -0.02  -0.01     0.00  -0.02   0.01
    28   6     0.11  -0.01   0.00    -0.05   0.00   0.01     0.04  -0.04  -0.03
    29   6     0.16  -0.03   0.02    -0.10   0.01   0.00     0.04  -0.03  -0.06
    30   6     0.15  -0.01   0.01    -0.13   0.01  -0.01    -0.00   0.02  -0.09
    31   6     0.08   0.03  -0.02    -0.11  -0.01  -0.01    -0.03   0.05  -0.08
    32   6     0.03   0.04  -0.04    -0.06  -0.03  -0.01    -0.03   0.03  -0.05
    33   6    -0.11  -0.02   0.05    -0.08  -0.08   0.02    -0.01   0.04   0.03
    34   6    -0.16  -0.04   0.07    -0.13  -0.11   0.02    -0.02   0.05   0.08
    35   6    -0.13  -0.03   0.06    -0.11  -0.09  -0.01    -0.02   0.03   0.12
    36   6    -0.07  -0.00   0.03    -0.05  -0.04  -0.05    -0.00  -0.01   0.12
    37   6    -0.02   0.02  -0.00    -0.01  -0.01  -0.05     0.01  -0.02   0.08
    38   6     0.04  -0.06  -0.03    -0.04  -0.03   0.00    -0.02   0.18   0.03
    39   6     0.05  -0.11  -0.03    -0.05  -0.01  -0.00    -0.05   0.21   0.02
    40   6     0.06  -0.11  -0.01    -0.06   0.04  -0.01    -0.06   0.05  -0.00
    41   6     0.05  -0.05   0.00    -0.05   0.07  -0.02    -0.06  -0.14  -0.03
    42   6     0.03  -0.00   0.00    -0.03   0.05  -0.02    -0.03  -0.17  -0.02
    43   1    -0.02   0.01   0.06    -0.05   0.02   0.03    -0.03   0.01   0.02
    44   1     0.00  -0.05   0.09    -0.02   0.01   0.02    -0.01   0.00   0.01
    45   1    -0.00  -0.11   0.06     0.04  -0.02  -0.01     0.04  -0.01  -0.00
    46   1    -0.03  -0.12   0.00     0.06  -0.03  -0.03     0.06  -0.01  -0.00
    47   1    -0.09   0.02  -0.01     0.01   0.00  -0.01     0.01  -0.00   0.02
    48   1     0.03  -0.02  -0.00     0.01   0.04   0.01    -0.02   0.00   0.02
    49   1    -0.11   0.07  -0.00    -0.08   0.02   0.06    -0.06  -0.10   0.00
    50   1    -0.03   0.09  -0.02     0.00   0.03   0.09    -0.05  -0.09  -0.08
    51   1     0.11   0.10  -0.08     0.14   0.00   0.06     0.04   0.00  -0.16
    52   1     0.16   0.10  -0.11     0.19  -0.04  -0.00     0.11   0.07  -0.15
    53   1     0.07   0.08  -0.09     0.10  -0.05  -0.03     0.10   0.06  -0.06
    54   1     0.12  -0.03   0.01    -0.03   0.01   0.02     0.06  -0.08  -0.01
    55   1     0.21  -0.06   0.04    -0.11   0.03   0.01     0.06  -0.05  -0.06
    56   1     0.19  -0.02   0.02    -0.17   0.02  -0.01    -0.00   0.03  -0.12
    57   1     0.08   0.04  -0.03    -0.14  -0.02  -0.02    -0.05   0.09  -0.11
    58   1    -0.01   0.07  -0.05    -0.06  -0.04  -0.01    -0.04   0.06  -0.04
    59   1    -0.13  -0.03   0.06    -0.10  -0.10   0.04    -0.01   0.05   0.00
    60   1    -0.21  -0.06   0.11    -0.17  -0.15   0.05    -0.03   0.08   0.08
    61   1    -0.17  -0.05   0.09    -0.14  -0.11  -0.00    -0.03   0.04   0.15
    62   1    -0.05   0.01   0.02    -0.04  -0.03  -0.07    -0.00  -0.03   0.15
    63   1     0.03   0.04  -0.03     0.03   0.03  -0.08     0.01  -0.06   0.08
    64   1     0.03  -0.06  -0.05    -0.04  -0.06   0.01    -0.01   0.30   0.05
    65   1     0.06  -0.15  -0.04    -0.06  -0.03   0.01    -0.05   0.37   0.04
    66   1     0.07  -0.15  -0.01    -0.07   0.06  -0.01    -0.08   0.08  -0.01
    67   1     0.06  -0.05   0.02    -0.05   0.10  -0.03    -0.07  -0.26  -0.05
    68   1     0.03   0.03   0.01    -0.03   0.06  -0.03    -0.03  -0.31  -0.04
    69   1    -0.04  -0.06  -0.03     0.03  -0.02  -0.02     0.04  -0.01   0.01
    70   6    -0.01  -0.03   0.04     0.03   0.06   0.03    -0.00   0.01   0.00
    71   6     0.00   0.01   0.04     0.05   0.05   0.02     0.01  -0.00  -0.00
    72   6    -0.02  -0.05   0.00     0.07   0.05   0.02    -0.01   0.02   0.01
    73   6     0.01   0.03   0.00     0.10   0.01  -0.00     0.02  -0.01  -0.00
    74   1     0.01   0.03   0.07     0.02   0.06   0.03     0.01  -0.01  -0.01
    75   6    -0.01  -0.03  -0.04     0.12   0.01  -0.00     0.00   0.01   0.01
    76   1    -0.03  -0.08   0.00     0.06   0.06   0.02    -0.02   0.03   0.02
    77   6     0.00   0.01  -0.04     0.15  -0.01  -0.02     0.02  -0.01   0.00
    78   1     0.02   0.06   0.00     0.12  -0.01  -0.01     0.03  -0.02  -0.01
    79   1    -0.02  -0.05  -0.07     0.15  -0.00  -0.01    -0.00   0.01   0.02
    80   6     0.01   0.02  -0.08     0.24  -0.06  -0.05     0.03  -0.02  -0.00
    81   1     0.02   0.06  -0.10     0.30  -0.01  -0.05     0.04  -0.00  -0.01
    82   1     0.01   0.04  -0.07     0.22  -0.12  -0.07     0.02  -0.03   0.01
    83   1     0.02  -0.01  -0.11     0.28  -0.11  -0.08     0.05  -0.03  -0.00
                     10                     11                     12
                      A                      A                      A
 Frequencies --     47.4004                53.5006                55.7579
 Red. masses --      4.6918                 4.3118                 5.0026
 Frc consts  --      0.0062                 0.0073                 0.0092
 IR Inten    --      0.2335                 0.8809                 2.1778
  Atom  AN      X      Y      Z        X      Y      Z        X      Y      Z
     1   6    -0.05  -0.00   0.01     0.00   0.03  -0.01     0.02   0.02   0.03
     2   6    -0.07  -0.01   0.03     0.07   0.03  -0.05     0.02   0.02   0.03
     3   6    -0.09  -0.01   0.03     0.16   0.01  -0.08     0.00   0.02   0.03
     4   6    -0.09  -0.01   0.02     0.18   0.01  -0.07    -0.02   0.03   0.04
     5   6    -0.07  -0.01   0.00     0.11   0.02  -0.03    -0.02   0.03   0.04
     6   6    -0.05  -0.01  -0.00     0.03   0.03  -0.00    -0.00   0.02   0.03
     7   6    -0.03  -0.00  -0.02    -0.00   0.03   0.02    -0.01   0.03   0.04
     8   8     0.01   0.04   0.01    -0.00  -0.02   0.03    -0.07   0.04  -0.01
     9   8    -0.00   0.04   0.01    -0.01  -0.01   0.03    -0.03   0.01  -0.02
    10  16    -0.00   0.04   0.00    -0.01  -0.01   0.03    -0.04   0.02  -0.01
    11   7    -0.01   0.02  -0.01    -0.01  -0.00   0.02    -0.03   0.03   0.03
    12   6     0.05   0.01  -0.04     0.04   0.03  -0.03     0.09   0.05  -0.03
    13   6     0.08   0.02  -0.04     0.07   0.04  -0.03     0.20   0.08  -0.08
    14   6     0.03  -0.00  -0.01     0.03   0.02  -0.00     0.19   0.07  -0.07
    15   6    -0.05  -0.03   0.02    -0.04  -0.01   0.02     0.07   0.04  -0.02
    16   6    -0.08  -0.03   0.02    -0.06  -0.01   0.02    -0.04   0.01   0.03
    17   8    -0.04  -0.00  -0.02    -0.03   0.02  -0.01    -0.03   0.02   0.02
    18   6    -0.03  -0.01  -0.01    -0.02   0.01  -0.01    -0.02   0.02   0.01
    19   6    -0.04  -0.01  -0.01    -0.04   0.01  -0.01    -0.06   0.02   0.02
    20   8    -0.03  -0.01  -0.02     0.01   0.01  -0.01     0.01   0.04   0.04
    21   6    -0.03  -0.01  -0.02     0.00   0.03   0.00    -0.01   0.04   0.03
    22   7    -0.03  -0.02  -0.02    -0.00   0.02  -0.01    -0.02   0.02   0.01
    23   6    -0.03  -0.02   0.02    -0.02  -0.02   0.01    -0.01  -0.02   0.02
    24   7    -0.03  -0.02  -0.02    -0.02   0.00  -0.02    -0.03   0.01   0.01
    25   6    -0.01   0.02   0.01    -0.01  -0.01  -0.01    -0.03  -0.05   0.00
    26   6    -0.02  -0.01  -0.00    -0.00  -0.01  -0.01     0.02  -0.02   0.03
    27  15    -0.03  -0.01  -0.00    -0.01  -0.01  -0.01    -0.01  -0.02   0.02
    28   6     0.08  -0.06   0.09     0.10  -0.06   0.09    -0.07   0.01  -0.02
    29   6     0.13  -0.09   0.13     0.08  -0.06   0.09    -0.11   0.03  -0.05
    30   6     0.07  -0.07   0.10    -0.07  -0.01   0.01    -0.08   0.02  -0.03
    31   6    -0.03  -0.03   0.03    -0.18   0.03  -0.07    -0.02  -0.01   0.01
    32   6    -0.08  -0.00  -0.01    -0.15   0.02  -0.07     0.02  -0.03   0.04
    33   6     0.03   0.07  -0.03    -0.03  -0.02  -0.00     0.05  -0.06  -0.04
    34   6     0.11   0.12  -0.04    -0.02  -0.01  -0.01     0.08  -0.07  -0.09
    35   6     0.13   0.12  -0.02     0.02   0.01  -0.03     0.02  -0.07  -0.11
    36   6     0.09   0.06   0.02     0.04   0.01  -0.04    -0.07  -0.06  -0.06
    37   6     0.01   0.01   0.03     0.02   0.00  -0.03    -0.09  -0.05  -0.01
    38   6    -0.02  -0.00  -0.00    -0.01  -0.02  -0.01     0.05   0.05  -0.00
    39   6    -0.02  -0.02  -0.00    -0.01  -0.03  -0.01     0.09   0.01   0.00
    40   6    -0.02  -0.06  -0.00    -0.01  -0.03  -0.01     0.10  -0.09   0.04
    41   6    -0.03  -0.07  -0.00    -0.01  -0.02  -0.01     0.07  -0.15   0.07
    42   6    -0.03  -0.05  -0.00    -0.00  -0.01  -0.01     0.03  -0.11   0.06
    43   1    -0.04  -0.00   0.01    -0.06   0.04   0.01     0.03   0.01   0.02
    44   1    -0.07  -0.00   0.04     0.05   0.03  -0.06     0.03   0.01   0.02
    45   1    -0.11  -0.01   0.04     0.21   0.00  -0.11     0.01   0.02   0.03
    46   1    -0.11  -0.02   0.02     0.25  -0.00  -0.09    -0.03   0.03   0.05
    47   1    -0.02  -0.01  -0.03    -0.01   0.03   0.04    -0.02   0.03   0.04
    48   1    -0.02   0.03  -0.00     0.00  -0.01   0.01    -0.05   0.02   0.03
    49   1     0.09   0.03  -0.06     0.07   0.05  -0.05     0.10   0.06  -0.04
    50   1     0.14   0.04  -0.07     0.12   0.06  -0.05     0.29   0.10  -0.12
    51   1     0.05   0.00  -0.01     0.05   0.02  -0.00     0.28   0.09  -0.11
    52   1    -0.09  -0.04   0.04    -0.07  -0.02   0.04     0.06   0.03  -0.01
    53   1    -0.14  -0.05   0.04    -0.11  -0.03   0.04    -0.13  -0.01   0.06
    54   1     0.12  -0.07   0.11     0.21  -0.09   0.15    -0.09   0.01  -0.03
    55   1     0.21  -0.12   0.18     0.17  -0.09   0.16    -0.16   0.05  -0.08
    56   1     0.11  -0.09   0.13    -0.09  -0.01   0.01    -0.11   0.03  -0.06
    57   1    -0.07  -0.02   0.00    -0.28   0.06  -0.13     0.00  -0.01   0.02
    58   1    -0.14   0.02  -0.06    -0.21   0.05  -0.12     0.05  -0.04   0.06
    59   1     0.02   0.08  -0.04    -0.06  -0.03   0.01     0.09  -0.05  -0.03
    60   1     0.14   0.17  -0.06    -0.03  -0.02   0.00     0.14  -0.07  -0.13
    61   1     0.19   0.16  -0.03     0.04   0.01  -0.03     0.04  -0.07  -0.15
    62   1     0.11   0.05   0.03     0.07   0.02  -0.05    -0.12  -0.07  -0.07
    63   1    -0.02  -0.03   0.05     0.04   0.01  -0.04    -0.16  -0.05   0.02
    64   1    -0.02   0.03  -0.01    -0.01  -0.03  -0.01     0.04   0.12  -0.03
    65   1    -0.02  -0.02  -0.00    -0.01  -0.05  -0.01     0.11   0.06  -0.02
    66   1    -0.02  -0.08  -0.00    -0.01  -0.04  -0.01     0.13  -0.12   0.04
    67   1    -0.03  -0.10  -0.00    -0.01  -0.02  -0.02     0.08  -0.22   0.10
    68   1    -0.03  -0.06  -0.00    -0.00  -0.00  -0.02     0.01  -0.15   0.09
    69   1    -0.07  -0.01  -0.01     0.14   0.01  -0.02    -0.03   0.04   0.05
    70   6    -0.00   0.04   0.01    -0.01  -0.01   0.02    -0.03   0.00  -0.01
    71   6    -0.02   0.05   0.02     0.05  -0.05  -0.01    -0.03   0.00  -0.01
    72   6     0.05   0.01  -0.02    -0.07   0.04   0.07    -0.02   0.00  -0.01
    73   6     0.02   0.03  -0.01     0.04  -0.05   0.00    -0.02  -0.01  -0.02
    74   1    -0.06   0.08   0.04     0.10  -0.09  -0.04    -0.03   0.00  -0.01
    75   6     0.09  -0.01  -0.04    -0.09   0.04   0.08    -0.01  -0.00  -0.01
    76   1     0.06  -0.00  -0.03    -0.12   0.08   0.09    -0.02   0.01  -0.01
    77   6     0.08  -0.01  -0.04    -0.03  -0.00   0.05    -0.01  -0.01  -0.02
    78   1     0.01   0.04  -0.00     0.09  -0.08  -0.02    -0.02  -0.01  -0.02
    79   1     0.13  -0.04  -0.07    -0.14   0.08   0.12    -0.01  -0.00  -0.01
    80   6     0.16  -0.05  -0.08    -0.07   0.01   0.08    -0.00  -0.01  -0.02
    81   1     0.22   0.01  -0.08    -0.09  -0.02   0.08    -0.00  -0.00  -0.03
    82   1     0.15  -0.09  -0.09    -0.06   0.03   0.08    -0.01  -0.02  -0.01
    83   1     0.19  -0.09  -0.11    -0.08   0.04   0.10     0.01  -0.02  -0.02
                     13                     14                     15
                      A                      A                      A
 Frequencies --     59.4520                62.9371                71.0514
 Red. masses --      4.5334                 4.2682                 4.5339
 Frc consts  --      0.0094                 0.0100                 0.0135
 IR Inten    --      0.2002                 0.9673                 5.8317
  Atom  AN      X      Y      Z        X      Y      Z        X      Y      Z
     1   6    -0.07   0.02  -0.04    -0.01   0.01   0.01    -0.11   0.05   0.04
     2   6    -0.02   0.02  -0.07    -0.00   0.01   0.00    -0.12   0.06   0.04
     3   6     0.08  -0.00  -0.10     0.00   0.01   0.00    -0.04   0.04   0.01
     4   6     0.13  -0.01  -0.10     0.01   0.01   0.01     0.04   0.01  -0.01
     5   6     0.08  -0.01  -0.07     0.00   0.01   0.01     0.04   0.00  -0.01
     6   6    -0.02   0.01  -0.04    -0.01   0.01   0.01    -0.03   0.02   0.02
     7   6    -0.03  -0.00  -0.02    -0.01   0.00   0.02    -0.03   0.01   0.03
     8   8     0.04  -0.02   0.04    -0.03   0.02  -0.00    -0.05   0.01   0.02
     9   8    -0.00   0.02   0.05    -0.01   0.00  -0.01    -0.05   0.01   0.02
    10  16     0.01   0.00   0.03    -0.02   0.01   0.00    -0.05   0.01   0.02
    11   7    -0.01  -0.02  -0.01    -0.01   0.00   0.02    -0.04   0.01   0.02
    12   6    -0.03   0.01   0.01     0.12   0.02  -0.06    -0.08  -0.04   0.04
    13   6    -0.00   0.02   0.03     0.16   0.03  -0.08    -0.08  -0.04   0.03
    14   6     0.03  -0.01   0.03     0.06   0.00  -0.03    -0.00  -0.01  -0.01
    15   6     0.04  -0.03   0.01    -0.09  -0.03   0.04     0.08   0.01  -0.04
    16   6     0.01  -0.03  -0.01    -0.13  -0.04   0.06     0.08   0.01  -0.03
    17   8    -0.06   0.00  -0.03    -0.04  -0.01   0.00     0.01  -0.02   0.01
    18   6    -0.02  -0.01  -0.02    -0.03  -0.01   0.00     0.00  -0.02   0.01
    19   6    -0.04  -0.01  -0.03    -0.05  -0.01   0.01     0.02  -0.02   0.01
    20   8    -0.03  -0.02  -0.06    -0.00  -0.00   0.01    -0.05  -0.02   0.02
    21   6    -0.03  -0.01  -0.04    -0.01   0.00   0.01    -0.03  -0.02   0.03
    22   7    -0.03  -0.00  -0.03    -0.01  -0.01   0.00    -0.03  -0.01   0.03
    23   6    -0.04   0.01  -0.01     0.00  -0.04  -0.04     0.01  -0.02  -0.02
    24   7    -0.03  -0.01  -0.03    -0.02  -0.02  -0.01    -0.02  -0.01   0.02
    25   6    -0.03   0.03  -0.00    -0.01  -0.03   0.03    -0.01  -0.03   0.01
    26   6    -0.02   0.01  -0.02    -0.01  -0.04  -0.01     0.01  -0.03   0.02
    27  15    -0.03   0.01  -0.02    -0.02  -0.05  -0.01    -0.02  -0.03   0.01
    28   6    -0.13   0.05  -0.05    -0.04  -0.04  -0.09     0.04  -0.06  -0.04
    29   6    -0.07   0.02  -0.01    -0.00  -0.04  -0.10     0.07  -0.05  -0.08
    30   6     0.08  -0.06   0.08     0.07  -0.04  -0.07     0.05   0.01  -0.11
    31   6     0.16  -0.10   0.13     0.11  -0.04  -0.02     0.01   0.05  -0.09
    32   6     0.09  -0.06   0.08     0.07  -0.03  -0.01    -0.00   0.04  -0.05
    33   6     0.02   0.08  -0.03    -0.12  -0.03   0.08     0.05  -0.01  -0.03
    34   6     0.04   0.10  -0.02    -0.12  -0.01   0.12     0.10   0.01  -0.07
    35   6     0.00   0.07   0.02     0.01   0.02   0.09     0.09   0.01  -0.07
    36   6    -0.05   0.02   0.06     0.12   0.03   0.03     0.03  -0.01  -0.03
    37   6    -0.06  -0.00   0.05     0.10   0.00   0.00    -0.02  -0.03   0.00
    38   6    -0.01   0.04  -0.03    -0.00  -0.04  -0.01     0.03  -0.08  -0.01
    39   6     0.01   0.02  -0.03     0.01   0.05  -0.01     0.08  -0.02  -0.00
    40   6     0.01  -0.04  -0.01     0.01   0.14   0.00     0.11   0.10   0.04
    41   6     0.00  -0.06   0.00     0.01   0.13   0.00     0.08   0.14   0.08
    42   6    -0.01  -0.04  -0.00     0.00   0.03   0.00     0.03   0.07   0.07
    43   1    -0.14   0.04  -0.01    -0.02   0.01   0.01    -0.17   0.06   0.06
    44   1    -0.06   0.03  -0.07    -0.01   0.01  -0.00    -0.19   0.08   0.06
    45   1     0.12  -0.01  -0.13     0.01   0.02  -0.00    -0.05   0.05   0.01
    46   1     0.21  -0.03  -0.13     0.02   0.02   0.01     0.10  -0.01  -0.03
    47   1    -0.03   0.00  -0.01    -0.01   0.00   0.02    -0.01   0.01   0.03
    48   1     0.01  -0.02  -0.02    -0.02   0.00   0.02    -0.04   0.01   0.02
    49   1    -0.05   0.03   0.00     0.19   0.04  -0.10    -0.13  -0.06   0.07
    50   1    -0.01   0.03   0.05     0.28   0.06  -0.14    -0.15  -0.06   0.06
    51   1     0.05  -0.00   0.05     0.09   0.01  -0.04     0.00  -0.01  -0.02
    52   1     0.07  -0.05   0.01    -0.18  -0.05   0.08     0.15   0.03  -0.08
    53   1     0.02  -0.05  -0.03    -0.25  -0.07   0.11     0.14   0.03  -0.06
    54   1    -0.23   0.10  -0.12    -0.09  -0.03  -0.12     0.06  -0.10  -0.02
    55   1    -0.14   0.06  -0.05    -0.04  -0.04  -0.14     0.10  -0.09  -0.09
    56   1     0.13  -0.08   0.12     0.10  -0.04  -0.07     0.07   0.02  -0.14
    57   1     0.27  -0.15   0.20     0.17  -0.04   0.01     0.00   0.10  -0.11
    58   1     0.14  -0.09   0.10     0.09  -0.03   0.02    -0.03   0.07  -0.03
    59   1     0.06   0.10  -0.07    -0.21  -0.06   0.10     0.06  -0.01  -0.02
    60   1     0.08   0.14  -0.05    -0.20  -0.02   0.16     0.15   0.03  -0.09
    61   1     0.01   0.08   0.03     0.01   0.04   0.11     0.14   0.03  -0.10
    62   1    -0.08  -0.01   0.10     0.21   0.06   0.01     0.02  -0.01  -0.04
    63   1    -0.10  -0.04   0.07     0.18   0.01  -0.04    -0.06  -0.04   0.03
    64   1    -0.01   0.07  -0.04    -0.01  -0.10  -0.02     0.02  -0.16  -0.04
    65   1     0.02   0.04  -0.04     0.01   0.06  -0.01     0.11  -0.06  -0.03
    66   1     0.03  -0.05  -0.01     0.02   0.22   0.00     0.14   0.16   0.05
    67   1     0.00  -0.10   0.01     0.02   0.19   0.01     0.10   0.23   0.11
    68   1    -0.03  -0.05   0.01    -0.00   0.04   0.01     0.01   0.10   0.10
    69   1     0.12  -0.02  -0.07     0.01   0.01   0.02     0.11  -0.02  -0.02
    70   6    -0.01   0.02   0.04    -0.01   0.01   0.00    -0.05   0.01   0.02
    71   6     0.05  -0.02   0.01    -0.00  -0.00  -0.01     0.01  -0.03  -0.01
    72   6    -0.06   0.06   0.08    -0.02   0.01   0.01    -0.09   0.04   0.04
    73   6     0.07  -0.04   0.00     0.00  -0.01  -0.01     0.04  -0.04  -0.03
    74   1     0.09  -0.05  -0.02    -0.00  -0.01  -0.01     0.03  -0.04  -0.03
    75   6    -0.05   0.04   0.07    -0.01   0.01   0.00    -0.06   0.02   0.03
    76   1    -0.11   0.09   0.10    -0.03   0.02   0.01    -0.14   0.07   0.06
    77   6     0.02  -0.01   0.04     0.00  -0.00  -0.00     0.01  -0.03  -0.01
    78   1     0.12  -0.08  -0.02     0.01  -0.01  -0.01     0.09  -0.08  -0.05
    79   1    -0.09   0.07   0.10    -0.01   0.01   0.01    -0.09   0.04   0.04
    80   6     0.04  -0.02   0.04     0.01  -0.01  -0.00     0.07  -0.06  -0.03
    81   1     0.06  -0.02   0.04     0.02  -0.00  -0.01     0.11  -0.02  -0.04
    82   1     0.04  -0.04   0.03     0.01  -0.02  -0.00     0.05  -0.10  -0.03
    83   1     0.05  -0.03   0.04     0.02  -0.02  -0.01     0.10  -0.10  -0.05
                     16                     17                     18
                      A                      A                      A
 Frequencies --     75.1713                77.4758                80.4852
 Red. masses --      3.7904                 4.0131                 5.0561
 Frc consts  --      0.0126                 0.0142                 0.0193
 IR Inten    --      2.7150                 1.5079                 1.1392
  Atom  AN      X      Y      Z        X      Y      Z        X      Y      Z
     1   6     0.15  -0.08  -0.06    -0.03  -0.00  -0.01     0.08   0.02   0.07
     2   6     0.16  -0.08  -0.08    -0.06   0.01  -0.00     0.13  -0.01   0.05
     3   6     0.01  -0.00  -0.01    -0.07   0.02   0.01     0.12  -0.02   0.05
     4   6    -0.15   0.06   0.08    -0.06   0.02   0.00     0.05   0.00   0.06
     5   6    -0.15   0.05   0.09    -0.03   0.00  -0.01     0.00   0.03   0.07
     6   6    -0.00  -0.02   0.02    -0.01  -0.01  -0.01     0.02   0.04   0.07
     7   6    -0.01  -0.03   0.03    -0.01  -0.01  -0.01    -0.00   0.05   0.07
     8   8    -0.02   0.04   0.01     0.01  -0.02   0.01    -0.10   0.06  -0.01
     9   8     0.05  -0.00  -0.01     0.00  -0.00   0.01    -0.04   0.01  -0.03
    10  16    -0.00   0.01   0.01    -0.00  -0.01   0.01    -0.04   0.03   0.00
    11   7    -0.02  -0.04   0.03    -0.01  -0.02  -0.01    -0.02   0.05   0.07
    12   6    -0.02  -0.01   0.00    -0.00  -0.00   0.01    -0.12   0.00   0.04
    13   6    -0.01  -0.00   0.00    -0.06  -0.01   0.03    -0.11  -0.00   0.08
    14   6     0.01  -0.00  -0.01    -0.08  -0.01   0.04     0.01  -0.01   0.04
    15   6     0.03  -0.00  -0.01    -0.04  -0.00   0.02     0.11  -0.01  -0.03
    16   6     0.02  -0.00  -0.01     0.02   0.01  -0.00     0.09  -0.01  -0.06
    17   8     0.02  -0.00  -0.01     0.01   0.00   0.01    -0.01   0.00  -0.04
    18   6    -0.00  -0.00  -0.00     0.03   0.01  -0.00    -0.03  -0.00  -0.02
    19   6    -0.01  -0.00  -0.00     0.03   0.01  -0.00    -0.05  -0.00  -0.03
    20   8     0.03   0.00   0.03    -0.01  -0.01  -0.02     0.02   0.03   0.03
    21   6    -0.00  -0.01   0.02    -0.00  -0.01  -0.01     0.00   0.05   0.04
    22   7    -0.02  -0.02  -0.01     0.00   0.01   0.01    -0.02   0.02  -0.01
    23   6    -0.01  -0.00  -0.02     0.01   0.02   0.02    -0.04  -0.04  -0.03
    24   7    -0.01  -0.01  -0.02     0.01   0.02   0.01    -0.03  -0.02  -0.06
    25   6    -0.01   0.01  -0.01     0.01   0.01  -0.00    -0.01  -0.02  -0.03
    26   6    -0.01  -0.00  -0.02     0.02   0.03   0.02     0.00  -0.03  -0.05
    27  15    -0.01  -0.00  -0.02     0.01   0.02   0.02    -0.03  -0.04  -0.05
    28   6     0.01  -0.01  -0.00    -0.02   0.03   0.00    -0.05  -0.02  -0.02
    29   6     0.02  -0.02   0.01    -0.03   0.04  -0.01    -0.04  -0.04   0.03
    30   6     0.02  -0.02   0.01    -0.01   0.04  -0.00    -0.01  -0.09   0.06
    31   6    -0.00  -0.01  -0.01     0.02   0.03   0.02    -0.01  -0.11   0.04
    32   6    -0.02  -0.00  -0.02     0.03   0.02   0.03    -0.02  -0.09  -0.01
    33   6     0.01   0.03  -0.02    -0.09  -0.07   0.06    -0.07   0.00  -0.00
    34   6     0.00   0.03  -0.00    -0.07  -0.08   0.02    -0.02   0.05   0.01
    35   6    -0.03   0.01   0.02     0.07   0.00  -0.09     0.09   0.08  -0.01
    36   6    -0.04  -0.01   0.04     0.17   0.08  -0.15     0.15   0.06  -0.04
    37   6    -0.03  -0.01   0.02     0.13   0.08  -0.10     0.09   0.01  -0.04
    38   6    -0.00  -0.03  -0.02     0.02   0.09   0.02     0.02   0.00  -0.07
    39   6     0.01  -0.01  -0.02     0.02   0.03   0.02     0.05   0.02  -0.06
    40   6     0.02   0.02  -0.01     0.01  -0.10   0.01     0.06   0.00  -0.04
    41   6     0.01   0.04  -0.00     0.01  -0.15   0.01     0.04  -0.03  -0.02
    42   6    -0.00   0.03  -0.01     0.01  -0.08   0.01     0.01  -0.04  -0.03
    43   1     0.26  -0.14  -0.12    -0.02  -0.01  -0.01     0.09   0.03   0.06
    44   1     0.30  -0.13  -0.15    -0.07   0.02   0.00     0.18  -0.02   0.04
    45   1     0.02   0.00  -0.02    -0.10   0.03   0.02     0.16  -0.04   0.04
    46   1    -0.28   0.12   0.13    -0.07   0.02   0.01     0.04  -0.00   0.06
    47   1    -0.02  -0.02   0.04    -0.01  -0.01  -0.01    -0.01   0.05   0.07
    48   1    -0.07  -0.07   0.00    -0.01  -0.02  -0.02    -0.04   0.05   0.07
    49   1    -0.03  -0.01   0.01    -0.00  -0.00   0.01    -0.20   0.01   0.07
    50   1    -0.02  -0.01   0.01    -0.09  -0.02   0.04    -0.19   0.00   0.13
    51   1     0.02  -0.00  -0.01    -0.13  -0.03   0.06     0.02  -0.01   0.07
    52   1     0.04   0.00  -0.02    -0.05  -0.00   0.03     0.20  -0.02  -0.06
    53   1     0.03  -0.00  -0.02     0.04   0.02  -0.01     0.17  -0.01  -0.11
    54   1     0.01  -0.01  -0.00    -0.03   0.03  -0.01    -0.07   0.01  -0.03
    55   1     0.04  -0.02   0.02    -0.05   0.05  -0.03    -0.05  -0.02   0.05
    56   1     0.03  -0.03   0.02    -0.02   0.04  -0.01     0.00  -0.11   0.10
    57   1    -0.01  -0.01  -0.01     0.04   0.03   0.03     0.02  -0.15   0.06
    58   1    -0.03  -0.00  -0.03     0.04   0.02   0.05    -0.01  -0.11  -0.03
    59   1     0.02   0.04  -0.04    -0.18  -0.13   0.14    -0.15  -0.02   0.01
    60   1     0.01   0.05  -0.01    -0.15  -0.14   0.08    -0.07   0.06   0.03
    61   1    -0.03   0.01   0.04     0.10   0.00  -0.12     0.14   0.12  -0.01
    62   1    -0.06  -0.02   0.06     0.28   0.14  -0.24     0.25   0.08  -0.06
    63   1    -0.04  -0.03   0.03     0.21   0.14  -0.15     0.14  -0.01  -0.07
    64   1    -0.00  -0.05  -0.03     0.03   0.17   0.02     0.01   0.01  -0.08
    65   1     0.01  -0.03  -0.03     0.02   0.08   0.02     0.06   0.05  -0.08
    66   1     0.02   0.03  -0.01     0.01  -0.16   0.01     0.07   0.02  -0.04
    67   1     0.01   0.07   0.00     0.01  -0.25   0.01     0.04  -0.04  -0.00
    68   1    -0.00   0.04   0.00     0.01  -0.11   0.01    -0.00  -0.06  -0.01
    69   1    -0.28   0.10   0.15    -0.02  -0.00  -0.01    -0.04   0.05   0.08
    70   6    -0.02   0.03   0.01    -0.02   0.01   0.01    -0.01  -0.01  -0.02
    71   6     0.08  -0.03  -0.05     0.05  -0.04  -0.03    -0.06   0.03   0.01
    72   6    -0.12   0.09   0.06    -0.09   0.05   0.04     0.05  -0.04  -0.04
    73   6     0.11  -0.04  -0.06     0.07  -0.05  -0.04    -0.07   0.03   0.02
    74   1     0.15  -0.07  -0.08     0.10  -0.07  -0.06    -0.10   0.05   0.03
    75   6    -0.10   0.08   0.05    -0.07   0.04   0.04     0.04  -0.04  -0.04
    76   1    -0.20   0.14   0.10    -0.15   0.09   0.07     0.10  -0.07  -0.07
    77   6     0.02   0.01  -0.01     0.01  -0.01  -0.01    -0.03   0.01  -0.00
    78   1     0.20  -0.10  -0.10     0.14  -0.09  -0.07    -0.12   0.06   0.05
    79   1    -0.18   0.13   0.09    -0.13   0.07   0.06     0.08  -0.06  -0.06
    80   6     0.05  -0.01  -0.02     0.06  -0.04  -0.03    -0.06   0.02   0.01
    81   1     0.06   0.03  -0.04     0.08  -0.00  -0.03    -0.08   0.00   0.01
    82   1     0.03  -0.02  -0.01     0.04  -0.06  -0.03    -0.05   0.04   0.02
    83   1     0.08  -0.04  -0.04     0.08  -0.06  -0.04    -0.07   0.04   0.02
                     19                     20                     21
                      A                      A                      A
 Frequencies --     83.9512                91.2874               117.2971
 Red. masses --      5.4099                 5.8032                 6.8157
 Frc consts  --      0.0225                 0.0285                 0.0553
 IR Inten    --      1.0795                 2.4184                31.0182
  Atom  AN      X      Y      Z        X      Y      Z        X      Y      Z
     1   6     0.07  -0.08  -0.11    -0.03  -0.06  -0.02    -0.08  -0.09  -0.05
     2   6     0.15  -0.11  -0.14     0.03  -0.04  -0.09    -0.13  -0.00  -0.09
     3   6     0.11  -0.10  -0.12     0.09  -0.01  -0.09    -0.07   0.06  -0.08
     4   6    -0.02  -0.06  -0.08     0.09   0.01  -0.02     0.05   0.04  -0.03
     5   6    -0.08  -0.03  -0.05     0.02  -0.01   0.04     0.08  -0.04   0.01
     6   6    -0.03  -0.04  -0.07    -0.03  -0.05   0.04     0.01  -0.10   0.00
     7   6    -0.04  -0.02  -0.07    -0.05  -0.08   0.07    -0.02  -0.13   0.04
     8   8     0.08  -0.01   0.03    -0.05   0.11   0.00     0.03   0.08  -0.02
     9   8     0.00   0.04   0.05     0.06  -0.01  -0.04     0.18  -0.10  -0.09
    10  16     0.02   0.02   0.02    -0.02   0.03   0.01     0.04  -0.04  -0.00
    11   7    -0.01  -0.01  -0.05    -0.06  -0.07   0.06    -0.03  -0.19   0.04
    12   6    -0.07   0.01   0.02     0.08  -0.06  -0.02    -0.06   0.06   0.05
    13   6    -0.05   0.01   0.00     0.04  -0.07  -0.02    -0.06   0.07  -0.02
    14   6    -0.01   0.03  -0.02    -0.02  -0.07   0.00    -0.03   0.13  -0.06
    15   6     0.01   0.04  -0.03    -0.03  -0.05   0.02    -0.01   0.18  -0.04
    16   6    -0.01   0.04  -0.00     0.02  -0.05   0.01    -0.02   0.16   0.04
    17   8    -0.11   0.01   0.05     0.10  -0.04  -0.01     0.03   0.10   0.08
    18   6    -0.05   0.02   0.02     0.07  -0.05  -0.00    -0.04   0.10   0.08
    19   6    -0.07   0.01   0.04     0.09  -0.05   0.00    -0.06   0.09   0.10
    20   8    -0.06  -0.00  -0.03    -0.03  -0.08   0.06     0.12   0.07   0.16
    21   6    -0.04  -0.01  -0.04    -0.05  -0.09   0.06     0.02  -0.02   0.03
    22   7    -0.02   0.01   0.00    -0.07  -0.07   0.03    -0.02  -0.05  -0.05
    23   6     0.02  -0.02   0.03    -0.05   0.07  -0.02     0.01  -0.03  -0.03
    24   7    -0.03   0.02   0.05    -0.02  -0.02   0.00     0.00   0.03   0.03
    25   6    -0.03  -0.04   0.05    -0.03   0.07  -0.03    -0.01  -0.03  -0.01
    26   6    -0.02  -0.03   0.06    -0.02   0.06  -0.01    -0.01  -0.04  -0.03
    27  15    -0.02  -0.02   0.06    -0.05   0.06  -0.01     0.00  -0.03  -0.03
    28   6    -0.00  -0.04  -0.02     0.00   0.02  -0.01     0.00  -0.00  -0.00
    29   6    -0.00  -0.01  -0.08     0.09   0.01  -0.01    -0.03  -0.01   0.03
    30   6     0.01   0.04  -0.09     0.11   0.04  -0.01    -0.05  -0.05   0.04
    31   6     0.03   0.06  -0.04     0.04   0.09  -0.02    -0.03  -0.09   0.01
    32   6     0.03   0.03   0.02    -0.03   0.10  -0.02    -0.01  -0.07  -0.03
    33   6     0.00  -0.05   0.04    -0.06   0.03  -0.01    -0.02  -0.01  -0.01
    34   6     0.08  -0.03  -0.03    -0.11  -0.00  -0.01    -0.00   0.01   0.00
    35   6     0.13   0.01  -0.09    -0.12   0.01  -0.03     0.03   0.01   0.01
    36   6     0.09   0.02  -0.07    -0.08   0.05  -0.06     0.04  -0.01   0.01
    37   6     0.01  -0.01  -0.00    -0.04   0.09  -0.06     0.02  -0.03  -0.00
    38   6    -0.02  -0.01   0.07     0.02   0.04  -0.05    -0.00  -0.02  -0.04
    39   6    -0.02   0.02   0.07     0.08  -0.03  -0.04     0.01   0.01  -0.04
    40   6    -0.02   0.04   0.07     0.10  -0.08   0.01     0.01   0.03  -0.03
    41   6    -0.02   0.02   0.07     0.07  -0.04   0.06     0.00   0.00  -0.03
    42   6    -0.02  -0.01   0.06     0.01   0.03   0.05    -0.00  -0.03  -0.03
    43   1     0.11  -0.09  -0.12    -0.07  -0.10  -0.03    -0.12  -0.14  -0.06
    44   1     0.24  -0.15  -0.17     0.04  -0.06  -0.14    -0.22   0.02  -0.13
    45   1     0.17  -0.13  -0.15     0.15   0.01  -0.14    -0.11   0.13  -0.10
    46   1    -0.05  -0.05  -0.06     0.14   0.04  -0.02     0.11   0.09  -0.02
    47   1    -0.05  -0.03  -0.08    -0.03  -0.08   0.08    -0.08  -0.11   0.08
    48   1     0.01  -0.01  -0.05    -0.12  -0.09   0.05    -0.08  -0.21   0.02
    49   1    -0.10  -0.01   0.04     0.11  -0.07  -0.03    -0.08   0.02   0.08
    50   1    -0.06   0.00   0.00     0.05  -0.07  -0.03    -0.08   0.02  -0.04
    51   1     0.01   0.04  -0.04    -0.05  -0.07   0.01    -0.02   0.14  -0.11
    52   1     0.04   0.06  -0.05    -0.07  -0.05   0.03     0.02   0.22  -0.07
    53   1    -0.00   0.05  -0.00     0.01  -0.04   0.02    -0.00   0.20   0.06
    54   1    -0.02  -0.07  -0.02    -0.01   0.00  -0.01     0.01   0.03  -0.01
    55   1    -0.02  -0.03  -0.13     0.14  -0.03  -0.00    -0.04   0.02   0.06
    56   1     0.01   0.06  -0.14     0.17   0.02   0.00    -0.07  -0.06   0.06
    57   1     0.04   0.10  -0.04     0.06   0.11  -0.02    -0.04  -0.12   0.02
    58   1     0.03   0.05   0.06    -0.06   0.14  -0.01     0.01  -0.10  -0.05
    59   1    -0.02  -0.08   0.07    -0.06   0.02   0.01    -0.05  -0.01  -0.01
    60   1     0.11  -0.04  -0.05    -0.13  -0.04   0.01    -0.01   0.03   0.00
    61   1     0.21   0.03  -0.15    -0.15  -0.02  -0.03     0.05   0.03   0.01
    62   1     0.13   0.05  -0.12    -0.08   0.06  -0.08     0.07  -0.01   0.01
    63   1    -0.01   0.00   0.01    -0.02   0.12  -0.07     0.03  -0.05  -0.00
    64   1    -0.02  -0.02   0.07     0.01   0.07  -0.09    -0.00  -0.03  -0.05
    65   1    -0.02   0.04   0.07     0.11  -0.05  -0.08     0.01   0.03  -0.04
    66   1    -0.02   0.07   0.07     0.15  -0.14   0.02     0.01   0.06  -0.03
    67   1    -0.02   0.03   0.06     0.08  -0.08   0.11     0.01   0.02  -0.02
    68   1    -0.02  -0.03   0.06    -0.02   0.04   0.09    -0.01  -0.04  -0.03
    69   1    -0.17   0.00  -0.02     0.02  -0.00   0.09     0.16  -0.06   0.05
    70   6     0.01   0.03   0.03    -0.04   0.04   0.03    -0.02   0.01   0.03
    71   6    -0.05   0.07   0.06    -0.10   0.07   0.06    -0.03   0.03   0.05
    72   6     0.07  -0.01  -0.00     0.04  -0.00  -0.01    -0.01  -0.00   0.02
    73   6    -0.05   0.07   0.06    -0.09   0.06   0.06    -0.03   0.03   0.04
    74   1    -0.09   0.10   0.09    -0.15   0.10   0.09    -0.03   0.03   0.06
    75   6     0.07  -0.00   0.00     0.06  -0.02  -0.01    -0.00  -0.00   0.01
    76   1     0.12  -0.04  -0.03     0.10  -0.03  -0.03     0.00  -0.02   0.02
    77   6     0.00   0.04   0.03    -0.00   0.02   0.02     0.00   0.01   0.01
    78   1    -0.10   0.10   0.09    -0.14   0.09   0.08    -0.04   0.04   0.04
    79   1     0.12  -0.03  -0.02     0.13  -0.06  -0.04     0.02  -0.02  -0.01
    80   6    -0.01   0.05   0.04     0.03  -0.00   0.01     0.05  -0.01  -0.03
    81   1    -0.02   0.03   0.05     0.05   0.02   0.01     0.09   0.03  -0.03
    82   1    -0.00   0.06   0.04     0.02  -0.02   0.00     0.05  -0.04  -0.04
    83   1    -0.03   0.06   0.05     0.04  -0.01   0.00     0.07  -0.05  -0.05
                     22                     23                     24
                      A                      A                      A
 Frequencies --    121.7225               133.5194               149.9591
 Red. masses --      7.9032                 5.3069                 8.8576
 Frc consts  --      0.0690                 0.0557                 0.1174
 IR Inten    --     43.0643                 1.2588                19.3334
  Atom  AN      X      Y      Z        X      Y      Z        X      Y      Z
     1   6     0.01   0.02  -0.06    -0.00   0.01   0.01    -0.00   0.01  -0.01
     2   6     0.03  -0.02  -0.04    -0.04   0.02   0.02    -0.01   0.02  -0.00
     3   6    -0.00  -0.06  -0.05    -0.05   0.03   0.03    -0.00   0.01  -0.01
     4   6    -0.05  -0.05  -0.08    -0.02   0.02   0.02     0.02   0.01  -0.02
     5   6    -0.05  -0.01  -0.10     0.01   0.00   0.01     0.02   0.01  -0.02
     6   6    -0.02   0.02  -0.09     0.01   0.00   0.00     0.00   0.01  -0.01
     7   6    -0.01   0.04  -0.11     0.03   0.00  -0.01     0.00   0.00  -0.01
     8   8     0.06  -0.12   0.04     0.02  -0.04  -0.01     0.02  -0.01   0.00
     9   8    -0.20   0.13   0.13     0.03   0.01   0.01    -0.03   0.00   0.00
    10  16    -0.05   0.04   0.01     0.06  -0.01  -0.01    -0.01  -0.00  -0.00
    11   7    -0.03   0.13  -0.12     0.07   0.05   0.01    -0.00   0.01  -0.02
    12   6     0.08  -0.05   0.06    -0.06  -0.04   0.05    -0.10   0.02  -0.02
    13   6     0.04  -0.04  -0.03    -0.01  -0.02  -0.01    -0.00   0.04   0.01
    14   6     0.01   0.04  -0.06     0.05   0.02  -0.05     0.11   0.01  -0.01
    15   6     0.00   0.11  -0.00     0.02   0.04  -0.02     0.08  -0.05  -0.03
    16   6     0.05   0.10   0.08    -0.04   0.02   0.04    -0.05  -0.07  -0.05
    17   8     0.22   0.02   0.07    -0.02  -0.00   0.06     0.30   0.05  -0.22
    18   6     0.09   0.02   0.11    -0.06  -0.02   0.07    -0.10  -0.02  -0.05
    19   6     0.22   0.02   0.10    -0.05  -0.02   0.07    -0.01   0.01  -0.12
    20   8    -0.11   0.10   0.16    -0.02   0.03   0.08     0.09   0.17   0.18
    21   6    -0.03  -0.04   0.02    -0.01  -0.03   0.01     0.01   0.01  -0.03
    22   7    -0.02  -0.11  -0.02    -0.02  -0.09  -0.03    -0.05  -0.18  -0.27
    23   6    -0.02  -0.03  -0.04    -0.10   0.02  -0.02    -0.05  -0.01   0.10
    24   7     0.02  -0.03   0.09    -0.03  -0.06   0.03    -0.04  -0.14  -0.21
    25   6     0.04  -0.00  -0.05    -0.05   0.04  -0.01    -0.02  -0.02   0.07
    26   6    -0.03  -0.04  -0.04    -0.07   0.01   0.01     0.03   0.06   0.06
    27  15    -0.00  -0.03  -0.04    -0.07   0.01   0.01    -0.01  -0.01   0.06
    28   6    -0.02   0.00   0.00    -0.06  -0.02  -0.02    -0.05  -0.06   0.05
    29   6    -0.03  -0.02   0.06     0.02  -0.04  -0.02     0.01  -0.04  -0.03
    30   6    -0.03  -0.07   0.07     0.07  -0.02  -0.00     0.05   0.04  -0.03
    31   6    -0.04  -0.10   0.02     0.02   0.03  -0.00     0.03   0.10   0.03
    32   6    -0.04  -0.07  -0.03    -0.07   0.04  -0.01    -0.01   0.07   0.10
    33   6    -0.00   0.00  -0.03    -0.06   0.03  -0.00    -0.01  -0.04   0.08
    34   6    -0.05  -0.01   0.02    -0.05   0.03  -0.02     0.01  -0.05   0.04
    35   6    -0.04  -0.02   0.04    -0.02   0.05  -0.05     0.04  -0.02   0.01
    36   6     0.02  -0.01   0.01    -0.02   0.06  -0.06     0.03  -0.00   0.01
    37   6     0.06  -0.01  -0.03    -0.04   0.05  -0.03     0.00   0.00   0.04
    38   6     0.00  -0.02  -0.08    -0.04   0.01  -0.03    -0.01   0.03   0.11
    39   6     0.05   0.01  -0.07     0.01   0.00  -0.02    -0.07  -0.01   0.10
    40   6     0.06   0.02  -0.03     0.03  -0.01   0.02    -0.10  -0.03   0.05
    41   6     0.04  -0.00  -0.00    -0.00  -0.01   0.06    -0.06   0.00   0.00
    42   6    -0.01  -0.04  -0.01    -0.05   0.00   0.05     0.00   0.05   0.01
    43   1     0.03   0.05  -0.05     0.00   0.01   0.01    -0.00   0.02  -0.00
    44   1     0.06  -0.03  -0.01    -0.06   0.03   0.03    -0.02   0.02   0.00
    45   1     0.01  -0.09  -0.03    -0.08   0.04   0.04    -0.01   0.01  -0.00
    46   1    -0.07  -0.08  -0.08    -0.02   0.02   0.02     0.03  -0.00  -0.02
    47   1     0.07   0.01  -0.16     0.06  -0.01  -0.03     0.00   0.00  -0.02
    48   1     0.08   0.20  -0.05     0.10   0.06   0.03     0.03   0.04   0.01
    49   1     0.13  -0.11   0.08    -0.08  -0.07   0.07    -0.14   0.07  -0.03
    50   1     0.05  -0.10  -0.07     0.00  -0.04  -0.03     0.01   0.08   0.03
    51   1    -0.02   0.04  -0.12     0.10   0.03  -0.10     0.22   0.02  -0.01
    52   1    -0.03   0.17  -0.02     0.06   0.07  -0.05     0.16  -0.08  -0.04
    53   1     0.06   0.17   0.12    -0.04   0.03   0.06    -0.04  -0.11  -0.08
    54   1    -0.01   0.04  -0.01    -0.09  -0.03  -0.03    -0.07  -0.11   0.05
    55   1    -0.03   0.00   0.09     0.06  -0.07  -0.02     0.02  -0.09  -0.08
    56   1    -0.03  -0.09   0.11     0.15  -0.04   0.01     0.08   0.06  -0.08
    57   1    -0.05  -0.14   0.03     0.05   0.05   0.01     0.06   0.16   0.02
    58   1    -0.03  -0.09  -0.05    -0.09   0.07   0.00    -0.00   0.10   0.15
    59   1    -0.01   0.01  -0.04    -0.08   0.01   0.01    -0.03  -0.06   0.10
    60   1    -0.09  -0.01   0.04    -0.05   0.01  -0.02     0.01  -0.06   0.05
    61   1    -0.08  -0.03   0.08    -0.00   0.05  -0.07     0.06  -0.02  -0.02
    62   1     0.03  -0.02   0.02    -0.00   0.07  -0.07     0.05   0.02  -0.02
    63   1     0.09  -0.01  -0.05    -0.04   0.06  -0.03    -0.00   0.01   0.04
    64   1    -0.01  -0.02  -0.10    -0.05   0.02  -0.07     0.01   0.04   0.14
    65   1     0.07   0.03  -0.10     0.04   0.00  -0.06    -0.11  -0.03   0.14
    66   1     0.09   0.05  -0.03     0.07  -0.02   0.03    -0.14  -0.07   0.04
    67   1     0.05   0.01   0.03     0.01  -0.01   0.10    -0.08  -0.01  -0.04
    68   1    -0.03  -0.05   0.01    -0.08   0.00   0.08     0.03   0.06  -0.02
    69   1    -0.08  -0.01  -0.13     0.03  -0.00   0.00     0.04  -0.00  -0.02
    70   6    -0.04   0.04   0.00     0.14  -0.05  -0.06    -0.02   0.01   0.01
    71   6    -0.05   0.03   0.00     0.19  -0.08  -0.09    -0.04   0.01   0.01
    72   6    -0.02   0.04   0.01     0.13  -0.04  -0.06    -0.03   0.01   0.01
    73   6    -0.03   0.01   0.01     0.17  -0.07  -0.08    -0.04   0.01   0.01
    74   1    -0.07   0.03  -0.00     0.23  -0.11  -0.11    -0.04   0.02   0.02
    75   6    -0.01   0.03   0.02     0.10  -0.02  -0.03    -0.03   0.01   0.01
    76   1    -0.02   0.06   0.01     0.13  -0.03  -0.05    -0.03   0.01   0.01
    77   6    -0.01   0.00   0.01     0.07  -0.01  -0.02    -0.02   0.00   0.00
    78   1    -0.04  -0.01   0.01     0.18  -0.08  -0.08    -0.04   0.01   0.02
    79   1     0.00   0.03   0.03     0.06   0.00  -0.01    -0.02   0.00   0.01
    80   6     0.02  -0.03   0.02    -0.13   0.09   0.08     0.03  -0.02  -0.02
    81   1     0.04  -0.01   0.02    -0.27  -0.05   0.08     0.06   0.01  -0.02
    82   1     0.01  -0.06   0.02    -0.08   0.21   0.11     0.02  -0.05  -0.02
    83   1     0.05  -0.04   0.02    -0.21   0.21   0.15     0.04  -0.05  -0.03
                     25                     26                     27
                      A                      A                      A
 Frequencies --    163.6047               168.7906               191.9242
 Red. masses --      5.8197                 5.8494                 5.6216
 Frc consts  --      0.0918                 0.0982                 0.1220
 IR Inten    --      5.8214                22.0167                13.3368
  Atom  AN      X      Y      Z        X      Y      Z        X      Y      Z
     1   6    -0.07  -0.09  -0.02    -0.11  -0.02  -0.00    -0.03  -0.07  -0.04
     2   6    -0.07  -0.04  -0.07    -0.04  -0.03  -0.05    -0.05  -0.03  -0.06
     3   6    -0.03   0.01  -0.05     0.03  -0.03  -0.07    -0.03   0.01  -0.05
     4   6     0.00   0.01   0.00    -0.01  -0.01  -0.03     0.00   0.01  -0.01
     5   6    -0.01  -0.04   0.05    -0.09  -0.00   0.02     0.01  -0.04   0.01
     6   6    -0.05  -0.08   0.04    -0.11  -0.01   0.03    -0.01  -0.07   0.01
     7   6    -0.06  -0.07   0.05    -0.07  -0.01   0.01    -0.01  -0.04   0.00
     8   8    -0.17  -0.12   0.01    -0.01   0.20   0.03    -0.01   0.05   0.02
     9   8     0.07   0.15   0.17    -0.11  -0.07  -0.09    -0.13   0.03   0.01
    10  16    -0.04   0.05   0.02    -0.02   0.03   0.04    -0.04   0.04   0.02
    11   7    -0.06  -0.04   0.06     0.00   0.07   0.05    -0.02   0.06  -0.00
    12   6     0.04   0.05  -0.04     0.09   0.05  -0.04    -0.10  -0.05   0.03
    13   6    -0.00   0.04   0.00     0.01   0.04  -0.01    -0.01  -0.03   0.02
    14   6    -0.04   0.01   0.03    -0.07   0.03   0.03     0.09  -0.04  -0.01
    15   6    -0.01   0.00   0.00    -0.02   0.04   0.01     0.03  -0.06   0.00
[...]
 Vib (Bot)   47  0.361593D+00         -0.441780         -1.017235
 Vib (Bot)   48  0.357348D+00         -0.446909         -1.029045
 Vib (Bot)   49  0.355957D+00         -0.448602         -1.032944
 Vib (Bot)   50  0.353712D+00         -0.451350         -1.039272
 Vib (Bot)   51  0.350240D+00         -0.455634         -1.049136
 Vib (Bot)   52  0.347701D+00         -0.458794         -1.056413
 Vib (Bot)   53  0.339973D+00         -0.468556         -1.078890
 Vib (Bot)   54  0.318398D+00         -0.497030         -1.144454
 Vib (Bot)   55  0.300602D+00         -0.522008         -1.201968
 Vib (Bot)   56  0.292248D+00         -0.534248         -1.230152
 Vib (Bot)   57  0.286133D+00         -0.543432         -1.251299
 Vib (Bot)   58  0.282970D+00         -0.548259         -1.262413
 Vib (Bot)   59  0.270467D+00         -0.567886         -1.307606
 Vib (Bot)   60  0.250547D+00         -0.601111         -1.384110
 Vib (Bot)   61  0.245095D+00         -0.610666         -1.406111
 Vib (Bot)   62  0.239283D+00         -0.621088         -1.430108
 Vib (V=0)                            18.998569         43.745822
 Vib (V=0)    1  0.259131D+02          1.413519          3.254749
 Vib (V=0)    2  0.150071D+02          1.176296          2.708522
 Vib (V=0)    3  0.115237D+02          1.061593          2.444409
 Vib (V=0)    4  0.871782D+01          0.940408          2.165369
 Vib (V=0)    5  0.762502D+01          0.882241          2.031435
 Vib (V=0)    6  0.709366D+01          0.850871          1.959202
 Vib (V=0)    7  0.610450D+01          0.785650          1.809026
 Vib (V=0)    8  0.504366D+01          0.702746          1.618131
 Vib (V=0)    9  0.482626D+01          0.683611          1.574073
 Vib (V=0)   10  0.438016D+01          0.641490          1.477084
 Vib (V=0)   11  0.394297D+01          0.595823          1.371933
 Vib (V=0)   12  0.380559D+01          0.580422          1.336471
 Vib (V=0)   13  0.360344D+01          0.556718          1.281890
 Vib (V=0)   14  0.343467D+01          0.535885          1.233920
 Vib (V=0)   15  0.310646D+01          0.492266          1.133484
 Vib (V=0)   16  0.296724D+01          0.472353          1.087632
 Vib (V=0)   17  0.289591D+01          0.461785          1.063300
 Vib (V=0)   18  0.280900D+01          0.448552          1.032828
 Vib (V=0)   19  0.271674D+01          0.434049          0.999434
 Vib (V=0)   20  0.254497D+01          0.405682          0.934117
 Vib (V=0)   21  0.211236D+01          0.324767          0.747804
 Vib (V=0)   22  0.205764D+01          0.313369          0.721560
 Vib (V=0)   23  0.193013D+01          0.285586          0.657586
 Vib (V=0)   24  0.178723D+01          0.252180          0.580665
 Vib (V=0)   25  0.169150D+01          0.228271          0.525613
 Vib (V=0)   26  0.165942D+01          0.219956          0.506466
 Vib (V=0)   27  0.153885D+01          0.187197          0.431038
 Vib (V=0)   28  0.150507D+01          0.177558          0.408843
 Vib (V=0)   29  0.145970D+01          0.164264          0.378231
 Vib (V=0)   30  0.141978D+01          0.152220          0.350500
 Vib (V=0)   31  0.139443D+01          0.144398          0.332489
 Vib (V=0)   32  0.137137D+01          0.137154          0.315808
 Vib (V=0)   33  0.133288D+01          0.124793          0.287345
 Vib (V=0)   34  0.132505D+01          0.122231          0.281446
 Vib (V=0)   35  0.130291D+01          0.114913          0.264598
 Vib (V=0)   36  0.129739D+01          0.113069          0.260351
 Vib (V=0)   37  0.128140D+01          0.107684          0.247952
 Vib (V=0)   38  0.126887D+01          0.103416          0.238124
 Vib (V=0)   39  0.123530D+01          0.091772          0.211313
 Vib (V=0)   40  0.122384D+01          0.087726          0.201997
 Vib (V=0)   41  0.119434D+01          0.077127          0.177591
 Vib (V=0)   42  0.118387D+01          0.073305          0.168792
 Vib (V=0)   43  0.117307D+01          0.069322          0.159620
 Vib (V=0)   44  0.114546D+01          0.058981          0.135810
 Vib (V=0)   45  0.112031D+01          0.049339          0.113606
 Vib (V=0)   46  0.111851D+01          0.048638          0.111993
 Vib (V=0)   47  0.111705D+01          0.048072          0.110691
 Vib (V=0)   48  0.111457D+01          0.047108          0.108470
 Vib (V=0)   49  0.111376D+01          0.046793          0.107745
 Vib (V=0)   50  0.111246D+01          0.046286          0.106578
 Vib (V=0)   51  0.111047D+01          0.045505          0.104779
 Vib (V=0)   52  0.110901D+01          0.044936          0.103470
 Vib (V=0)   53  0.110463D+01          0.043218          0.099513
 Vib (V=0)   54  0.109277D+01          0.038529          0.088716
 Vib (V=0)   55  0.108341D+01          0.034791          0.080109
 Vib (V=0)   56  0.107914D+01          0.033080          0.076169
 Vib (V=0)   57  0.107608D+01          0.031846          0.073328
 Vib (V=0)   58  0.107452D+01          0.031214          0.071873
 Vib (V=0)   59  0.106846D+01          0.028760          0.066223
 Vib (V=0)   60  0.105926D+01          0.025003          0.057572
 Vib (V=0)   61  0.105684D+01          0.024009          0.055284
 Vib (V=0)   62  0.105431D+01          0.022967          0.052884
 Electronic      0.100000D+01          0.000000          0.000000
 Translational   0.513686D+09          8.710698         20.057123
 Rotational      0.613739D+08          7.787984         17.932495
 ***** Axes restored to original set *****
 -------------------------------------------------------------------
 Center     Atomic                   Forces (Hartrees/Bohr)
 Number     Number              X              Y              Z
 -------------------------------------------------------------------
      1        6          -0.000011964    0.000035509   -0.000039843
      2        6          -0.000022111    0.000047301   -0.000007803
      3        6           0.000002327   -0.000003675    0.000024207
      4        6           0.000011324    0.000007678    0.000055804
      5        6          -0.000023330   -0.000009108   -0.000035586
      6        6          -0.000000198   -0.000005629    0.000001505
      7        6          -0.000021779    0.000029370    0.000027672
      8        8          -0.000006720    0.000006466    0.000046890
      9        8          -0.000002472    0.000006564   -0.000015031
     10       16           0.000022462   -0.000030990   -0.000060543
     11        7          -0.000017187    0.000016773   -0.000010238
     12        6           0.000028217    0.000028547   -0.000071233
     13        6           0.000036439    0.000024577    0.000019345
     14        6          -0.000006308   -0.000003833    0.000003335
     15        6           0.000005283   -0.000002587    0.000026988
     16        6           0.000012112   -0.000011205    0.000011304
     17        8           0.000014741   -0.000011122    0.000086721
     18        6           0.000020984   -0.000006454    0.000012299
     19        6          -0.000111362    0.000058749   -0.000009351
     20        8           0.000027307    0.000001730   -0.000009328
     21        6           0.000003823   -0.000054498    0.000030772
     22        7          -0.000007324    0.000058539   -0.000029476
     23        6           0.000000443   -0.000018219    0.000028229
     24        7           0.000048222   -0.000063662   -0.000063003
     25        6           0.000013187   -0.000059710   -0.000009896
     26        6           0.000013190    0.000008624   -0.000009976
     27       15          -0.000017606    0.000001637    0.000009898
     28        6          -0.000009281    0.000015008    0.000011237
     29        6          -0.000017499   -0.000036511    0.000001344
     30        6          -0.000016369   -0.000006784    0.000019221
     31        6           0.000040164    0.000013741   -0.000053632
     32        6           0.000017515    0.000022254   -0.000031430
     33        6           0.000020854   -0.000048602   -0.000013290
     34        6          -0.000014583    0.000001871   -0.000039465
     35        6          -0.000057285    0.000015282   -0.000040516
     36        6           0.000025634   -0.000018119    0.000036756
     37        6          -0.000038781    0.000069838    0.000028275
     38        6          -0.000009483    0.000003329   -0.000014672
     39        6          -0.000001482   -0.000000548    0.000029153
     40        6           0.000015948   -0.000001582    0.000038354
     41        6          -0.000011012   -0.000001020   -0.000003447
     42        6          -0.000011040   -0.000004620    0.000006886
     43        1          -0.000024578   -0.000016298    0.000010045
     44        1           0.000001424   -0.000020365    0.000007719
     45        1          -0.000003395   -0.000010299    0.000009408
     46        1          -0.000001353    0.000000418   -0.000008416
     47        1           0.000014465   -0.000024464    0.000010764
     48        1           0.000007401   -0.000015913    0.000006924
     49        1          -0.000005518   -0.000002265    0.000005030
     50        1          -0.000008641   -0.000001612   -0.000011135
     51        1          -0.000005055    0.000005090   -0.000001623
     52        1          -0.000001096   -0.000007307   -0.000016766
     53        1           0.000001212    0.000001626   -0.000003451
     54        1          -0.000000922   -0.000002681   -0.000001482
     55        1           0.000002600    0.000023028    0.000007204
     56        1           0.000002545   -0.000000172   -0.000004122
     57        1          -0.000001600    0.000016833    0.000010900
     58        1          -0.000001625   -0.000010568    0.000000127
     59        1          -0.000011075    0.000030757    0.000007871
     60        1           0.000017160    0.000004828    0.000030625
     61        1           0.000005959   -0.000002217    0.000005551
     62        1           0.000004078   -0.000015792   -0.000017799
     63        1          -0.000004430   -0.000005059    0.000011028
     64        1           0.000021198    0.000000375   -0.000027665
     65        1          -0.000001869   -0.000001173   -0.000000221
     66        1          -0.000009447   -0.000001568   -0.000022230
     67        1          -0.000000546   -0.000000295   -0.000011134
     68        1          -0.000000659    0.000000248   -0.000023624
     69        1           0.000003318   -0.000011897    0.000022161
     70        6          -0.000006277   -0.000025497    0.000016563
     71        6           0.000008325   -0.000009203   -0.000012207
     72        6          -0.000002924    0.000029187   -0.000031398
     73        6           0.000013554   -0.000031119    0.000006034
     74        1           0.000017441    0.000025667    0.000000265
     75        6           0.000005832    0.000005441    0.000002291
     76        1           0.000004215   -0.000004306    0.000015499
     77        6          -0.000004708   -0.000002039   -0.000030872
     78        1           0.000010206   -0.000006066    0.000026957
     79        1           0.000004287    0.000004934   -0.000005658
     80        6          -0.000009984   -0.000006386    0.000003263
     81        1          -0.000009291    0.000010489    0.000009222
     82        1           0.000013915    0.000000789    0.000010089
     83        1           0.000010859   -0.000000061    0.000005828
 -------------------------------------------------------------------
 Cartesian Forces:  Max     0.000111362 RMS     0.000023144

 ----------------------------------------------------------------------

 Electric dipole moment (input orientation):
 (Debye = 10**-18 statcoulomb cm , SI units = C m)
                  (au)            (Debye)         (10**-30 SI)
   Tot        0.584800D+01      0.148641D+02      0.495814D+02
   x         -0.360358D+01     -0.915938D+01     -0.305524D+02
   y          0.230424D+01      0.585679D+01      0.195361D+02
   z          0.398796D+01      0.101364D+02      0.338114D+02

 Dipole polarizability, Alpha (input orientation).
 (esu units = cm**3 , SI units = C**2 m**2 J**-1)
 Alpha(0;0):
               (au)            (10**-24 esu)      (10**-40 SI)
   iso        0.577066D+03      0.855123D+02      0.951453D+02
   aniso      0.150609D+03      0.223180D+02      0.248321D+02
   xx         0.527118D+03      0.781109D+02      0.869101D+02
   yx         0.317675D+02      0.470745D+01      0.523775D+01
   yy         0.596254D+03      0.883558D+02      0.983090D+02
   zx         0.673375D+02      0.997839D+01      0.111025D+02
   zy         0.106320D+02      0.157551D+01      0.175299D+01
   zz         0.607824D+03      0.900703D+02      0.100217D+03

 ----------------------------------------------------------------------

 Dipole orientation:
     6          5.61516972          2.06986801         -1.83943787
     6          7.92656255          2.81121915         -0.83931254
     6          9.65621519          1.00085745         -0.01696554
     6          9.06040395         -1.55302694         -0.20036497
     6          6.74904252         -2.29510040         -1.22091859
     6          5.02072427         -0.49344724         -2.05569659
     6          2.50366579         -1.34250401         -3.17160599
     8          2.34592593         -0.05004137        -10.34328470
     8          4.38023162         -3.68512172         -7.96931509
    16          3.72679852         -1.01558066         -8.16402941
     7          1.92077139         -0.37434435         -5.70015097
     6         -4.54284184          6.16762783          1.70741950
     6         -4.29343545          8.30660869          3.21950242
     6         -2.15888084          8.61044837          4.72674719
     6         -0.26957678          6.77113713          4.71018544
     6         -0.52511004          4.63496229          3.20206504
     8         -5.01228074          1.79689142         -1.22590207
     6         -2.66925607          4.32316559          1.69804170
     6         -3.10273733          1.97393121          0.11520724
     8         -0.40041717          1.85042049         -1.68165163
     6          0.38159742         -0.47407570         -1.48179651
     7         -0.55802586         -1.94881626          0.21313655
     6         -5.93104979         -4.40322052          1.70250991
     7         -2.25747930         -0.39988295          1.58778040
     6         -6.38852510          0.32197474          4.70602876
     6         -2.54765165         -3.39267373          6.00165097
    15         -4.24951035         -1.97486699          3.40668873
     6         -6.58269836         -6.69598371          2.84401407
     6         -7.90515769         -8.50099552          1.46615245
     6         -8.56014107         -8.02712546         -1.03963315
     6         -7.89288548         -5.74938510         -2.17901891
     6         -6.57142501         -3.92816880         -0.82094180
     6         -8.78317824          0.67234094          3.65489145
     6        -10.33986117          2.57416359          4.58450994
     6         -9.50701341          4.11843104          6.54589667
     6         -7.11788669          3.76763347          7.59517491
     6         -5.55335017          1.87015077          6.68147649
     6          0.04596791         -3.86374948          5.81509164
     6          1.30905735         -4.97556302          7.83515107
     6          0.00074120         -5.62370421         10.02443301
     6         -2.58260606         -5.15178691         10.21236917
     6         -3.86100743         -4.03019167          8.20986896
     1          4.27109038          3.48503447         -2.47307920
     1          8.38316562          4.80728812         -0.70497061
     1         11.46361487          1.58439523          0.76035109
     1         10.39792514         -2.97386283          0.43475441
     1          2.45856599         -3.40341811         -3.25343993
     1          1.17989651          1.39759927         -5.72652312
     1         -6.20846698          5.87644897          0.54872389
     1         -5.77377289          9.72841396          3.23173335
     1         -1.96323072         10.27334512          5.91426282
     1          1.40186943          7.00336217          5.87897502
     1          0.93375127          3.19167417          3.19551952
     1         -6.05222257         -7.08992943          4.78567039
     1         -8.41123637        -10.28261337          2.34644706
     1         -9.58409360         -9.44526275         -2.11170101
     1         -8.39096341         -5.39157275         -4.13599797
     1         -6.03741918         -2.13569133         -1.67849174
     1         -9.42252167         -0.51461998          2.11041024
     1        -12.20122818          2.85211124          3.77081306
     1        -10.72597865          5.60612155          7.25976310
     1         -6.46475754          4.98167102          9.11228131
     1         -3.68194091          1.61647530          7.48119396
     1          1.05620155         -3.36854064          4.10169146
     1          3.32321954         -5.33388357          7.69450420
     1          0.99719584         -6.49119251         11.59367964
     1         -3.60189747         -5.64169774         11.92265254
     1         -5.86735191         -3.63071139          8.38489122
     1          6.29643156         -4.29158038         -1.38975113
     6          6.55800084          0.76787329         -7.88300964
     6          8.75510926         -0.40486316         -7.04272177
     6          6.49200420          3.35621933         -8.34884625
     6         10.89886216          1.04935516         -6.63378074
     1          8.76846108         -2.42154616         -6.68725507
     6          8.65378475          4.78342170         -7.92360140
     1          4.77755036          4.24857554         -9.03552681
     6         10.87421608          3.65957954         -7.03757449
     1         12.61306647          0.14481182         -5.95795394
     1          8.61061654          6.80506348         -8.27760619
     6         13.18141122          5.22346537         -6.46268273
     1         13.35448957          5.51666592         -4.41863641
     1         14.90737736          4.27880290         -7.09892160
     1         13.08434106          7.08137087         -7.36123397

 Electric dipole moment (dipole orientation):
 (Debye = 10**-18 statcoulomb cm , SI units = C m)
                  (au)            (Debye)         (10**-30 SI)
   Tot        0.584800D+01      0.148641D+02      0.495814D+02
   x          0.000000D+00      0.000000D+00      0.000000D+00
   y          0.000000D+00      0.000000D+00      0.000000D+00
   z          0.584800D+01      0.148641D+02      0.495814D+02

 Dipole polarizability, Alpha (dipole orientation).
 (esu units = cm**3 , SI units = C**2 m**2 J**-1)
 Alpha(0;0):
               (au)            (10**-24 esu)      (10**-40 SI)
   iso        0.577066D+03      0.855123D+02      0.951453D+02
   aniso      0.150609D+03      0.223180D+02      0.248321D+02
   xx         0.632449D+03      0.937193D+02      0.104277D+03
   yx         0.324050D+01      0.480192D+00      0.534286D+00
   yy         0.589669D+03      0.873800D+02      0.972234D+02
   zx         0.583240D+02      0.864272D+01      0.961632D+01
   zy         0.149883D+02      0.222103D+01      0.247123D+01
   zz         0.509078D+03      0.754376D+02      0.839357D+02

 ----------------------------------------------------------------------

 This type of calculation cannot be archived.


 I LOVE THOSE WHO LONG FOR THE IMPOSSIBLE.

                                 -- GOETHE
 Job cpu time:       0 days  0 hours  0 minutes  2.0 seconds.
 Elapsed time:       0 days  0 hours  0 minutes  0.6 seconds.
 File lengths (MBytes):  RWF=      6 Int=      0 D2E=      0 Chk=     15 Scr=      1
 Normal termination of Gaussian 16 at Sat Apr  4 18:50:39 2020.
