 Entering Gaussian System, Link 0=g16
 Initial command:
 /apps/cent7/gaussian/g16-A.03/g16-haswell/g16/l1.exe "/scratch/brown/finej/0051_imine_mechanism/ts_631gd/acyclic_complete/new_logs_2/Gau-245216.inp" -scrdir="/scratch/brown/finej/0051_imine_mechanism/ts_631gd/acyclic_complete/new_logs_2/"
 Entering Link 1 = /apps/cent7/gaussian/g16-A.03/g16-haswell/g16/l1.exe PID=    245217.
  
 Copyright (c) 1988,1990,1992,1993,1995,1998,2003,2009,2016,
            Gaussian, Inc.  All Rights Reserved.
  
 This is part of the Gaussian(R) 16 program.  It is based on
 the Gaussian(R) 09 system (copyright 2009, Gaussian, Inc.),
 the Gaussian(R) 03 system (copyright 2003, Gaussian, Inc.),
 the Gaussian(R) 98 system (copyright 1998, Gaussian, Inc.),
 the Gaussian(R) 94 system (copyright 1995, Gaussian, Inc.),
 the Gaussian 92(TM) system (copyright 1992, Gaussian, Inc.),
 the Gaussian 90(TM) system (copyright 1990, Gaussian, Inc.),
 the Gaussian 88(TM) system (copyright 1988, Gaussian, Inc.),
 the Gaussian 86(TM) system (copyright 1986, Carnegie Mellon
 University), and the Gaussian 82(TM) system (copyright 1983,
 Carnegie Mellon University). Gaussian is a federally registered
 trademark of Gaussian, Inc.
  
 This software contains proprietary and confidential information,
 including trade secrets, belonging to Gaussian, Inc.
  
 This software is provided under written license and may be
 used, copied, transmitted, or stored only in accord with that
 written license.
  
 The following legend is applicable only to US Government
 contracts under FAR:
  
                    RESTRICTED RIGHTS LEGEND
  
 Use, reproduction and disclosure by the US Government is
 subject to restrictions as set forth in subparagraphs (a)
 and (c) of the Commercial Computer Software - Restricted
 Rights clause in FAR 52.227-19.
  
 Gaussian, Inc.
 340 Quinnipiac St., Bldg. 40, Wallingford CT 06492
  
  
 ---------------------------------------------------------------
 Warning -- This program may not be used in any manner that
 competes with the business of Gaussian, Inc. or will provide
 assistance to any competitor of Gaussian, Inc.  The licensee
 of this program is prohibited from giving any competitor of
 Gaussian, Inc. access to this program.  By using this program,
 the user acknowledges that Gaussian, Inc. is engaged in the
 business of creating and licensing software in the field of
 computational chemistry and represents and warrants to the
 licensee that it is not a competitor of Gaussian, Inc. and that
 it will not use this program in any manner prohibited above.
 ---------------------------------------------------------------
  

 Cite this work as:
 Gaussian 16, Revision A.03,
 M. J. Frisch, G. W. Trucks, H. B. Schlegel, G. E. Scuseria, 
 M. A. Robb, J. R. Cheeseman, G. Scalmani, V. Barone, 
 G. A. Petersson, H. Nakatsuji, X. Li, M. Caricato, A. V. Marenich, 
 J. Bloino, B. G. Janesko, R. Gomperts, B. Mennucci, H. P. Hratchian, 
 J. V. Ortiz, A. F. Izmaylov, J. L. Sonnenberg, D. Williams-Young, 
 F. Ding, F. Lipparini, F. Egidi, J. Goings, B. Peng, A. Petrone, 
 T. Henderson, D. Ranasinghe, V. G. Zakrzewski, J. Gao, N. Rega, 
 G. Zheng, W. Liang, M. Hada, M. Ehara, K. Toyota, R. Fukuda, 
 J. Hasegawa, M. Ishida, T. Nakajima, Y. Honda, O. Kitao, H. Nakai, 
 T. Vreven, K. Throssell, J. A. Montgomery, Jr., J. E. Peralta, 
 F. Ogliaro, M. J. Bearpark, J. J. Heyd, E. N. Brothers, K. N. Kudin, 
 V. N. Staroverov, T. A. Keith, R. Kobayashi, J. Normand, 
 K. Raghavachari, A. P. Rendell, J. C. Burant, S. S. Iyengar, 
 J. Tomasi, M. Cossi, J. M. Millam, M. Klene, C. Adamo, R. Cammi, 
 J. W. Ochterski, R. L. Martin, K. Morokuma, O. Farkas, 
 J. B. Foresman, and D. J. Fox, Gaussian, Inc., Wallingford CT, 2016.
 
 ******************************************
 Gaussian 16:  ES64L-G16RevA.03 25-Dec-2016
                 4-Apr-2020 
 ******************************************
 %nprocshared=4
 Will use up to    4 processors via shared memory.
 %mem=1GB
 %oldchk=chk/acyclic_3_to_4.chk
 Copying data from "chk/acyclic_3_to_4.chk" to current chk file "/scratch/brown/finej/0051_imine_mechanism/ts_631gd/acyclic_complete/new_logs_2/Gau-245217.chk"
 IOpt=  2 FromEx=T IUOpen= 4 IOptOp= 5 NList=   0 IFRang= 0 IUIn= 4 IUOut= 2.
 ----------------------------------------------------------------------
 # freq=readfc wb97xd/6-31g(d) scrf=solvent=dichloromethane geom=check 
 temperature=263.15
 ----------------------------------------------------------------------
 1/29=2,38=1,112=263150,172=1/1;
 2/12=2,40=1/2;
 7/8=1,25=11/16;
 99/5=2/99;
 ------------
 Ring closing
 ------------
 Structure from the checkpoint file:  "/scratch/brown/finej/0051_imine_mechanism/ts_631gd/acyclic_complete/new_logs_2/Gau-245217.chk"
 Charge =  0 Multiplicity = 1
 Redundant internal coordinates found in file.  (old form).
 C,0,3.2456292995,1.1807060153,0.6579832115
 C,0,3.9782838151,1.9690830186,1.5369120142
 C,0,4.2329167388,1.523076971,2.833066911
 C,0,3.7499047582,0.2849742553,3.244758473
 C,0,3.0224071794,-0.5078138464,2.3598269434
 C,0,2.7707114008,-0.0693097795,1.0613787248
 C,0,1.9734066102,-0.9594331024,0.1126411672
 O,0,4.1675868956,-2.1352618017,-2.8353440512
 O,0,3.9222444192,-3.1434728195,-0.5195469517
 S,0,3.9987592927,-1.9812850166,-1.3960004264
 N,0,2.5675931189,-1.1695124531,-1.2126534982
 C,0,-1.9696965852,3.0907732072,-2.0135822732
 C,0,-2.3865825022,4.3922541104,-1.7505441358
 C,0,-1.9959996976,5.0233644076,-0.5733170122
 C,0,-1.1844175136,4.3498887481,0.3403645274
 C,0,-0.7659313539,3.0511168766,0.0769380052
 O,0,-1.0487992743,0.4637821915,-2.4853183298
 C,0,-1.1610174305,2.4168963536,-1.1019829215
 C,0,-0.7501777423,1.0128041083,-1.4367049015
 O,0,0.558626733,0.715278199,-0.880973721
 C,0,0.6044706046,-0.3909340534,-0.1115210119
 N,0,-0.452298949,-0.8512894233,0.4342584752
 C,0,-3.2936156935,-2.1050849258,-0.6671716125
 N,0,-1.5008711638,0.0113717885,0.1181845742
 C,0,-4.0800978341,0.7232126265,-0.3430974998
 C,0,-3.4778708601,-0.9157568957,1.9889977629
 P,0,-3.0031054644,-0.5831883427,0.270019192
 C,0,-4.2395674592,-3.0542104198,-0.2661040376
 C,0,-4.4403296592,-4.1959645398,-1.034218975
 C,0,-3.6957132381,-4.3946495984,-2.195457168
 C,0,-2.749443223,-3.4525352069,-2.5920357781
 C,0,-2.542313454,-2.3059664802,-1.8309608206
 C,0,-4.7393833501,0.6003739633,-1.5667181806
 C,0,-5.5221080907,1.651477739,-2.0367977484
 C,0,-5.6475360103,2.8165342961,-1.2862789079
 C,0,-4.988001304,2.9401219299,-0.0644017131
 C,0,-4.2036045347,1.8973834176,0.408935276
 C,0,-2.5008572371,-1.3331045406,2.8993812665
 C,0,-2.8585631973,-1.6140044985,4.2141715515
 C,0,-4.1840593077,-1.4835462532,4.6229168401
 C,0,-5.1579479479,-1.0673066021,3.7181705714
 C,0,-4.8076738683,-0.7804384098,2.4024887868
 H,0,3.0579137845,1.53341326,-0.3514650377
 H,0,4.3564972838,2.9322043921,1.207840398
 H,0,4.8087280392,2.1391076432,3.517310788
 H,0,3.9453490202,-0.0706304108,4.2519521003
 H,0,1.8391705015,-1.9412496497,0.570808828
 H,0,2.4633582129,-0.3956443634,-1.8625007983
 H,0,-2.276357058,2.5799066044,-2.919874422
 H,0,-3.02347333,4.9092997915,-2.4619910341
 H,0,-2.3228280461,6.0379518904,-0.3645092586
 H,0,-0.8775127592,4.8398656341,1.2597213762
 H,0,-0.1393782962,2.5210248708,0.7866969107
 H,0,-4.8137318345,-2.9106195045,0.6441960179
 H,0,-5.1734904672,-4.9331941153,-0.7228719855
 H,0,-3.8511301905,-5.2896151304,-2.7902731232
 H,0,-2.1665421642,-3.611529544,-3.4936959276
 H,0,-1.8088904351,-1.5633340135,-2.1381373592
 H,0,-4.6415029257,-0.3071359594,-2.1540132047
 H,0,-6.0338394666,1.5569507742,-2.9891131166
 H,0,-6.2586895376,3.6344399709,-1.6554403387
 H,0,-5.075646124,3.8537076221,0.5140892893
 H,0,-3.6810190853,1.9987458681,1.3550525026
 H,0,-1.4688933726,-1.4314421262,2.5768720933
 H,0,-2.0996829259,-1.9339091124,4.921118221
 H,0,-4.4584103536,-1.7032354883,5.6500938657
 H,0,-6.1898809804,-0.9599961592,4.0367100582
 H,0,-5.5682667576,-0.443875357,1.70376424
 H,0,2.657286645,-1.4807448057,2.6789362747
 C,0,5.3049124408,-0.9332389313,-0.8055324874
 C,0,5.8139660563,-1.1254305298,0.4749305064
 C,0,5.7282495674,0.1313970585,-1.5960657243
 C,0,6.7459455625,-0.2253269143,0.9714371255
 H,0,5.4711795112,-1.9595566373,1.0759247162
 C,0,6.6607795894,1.0236617169,-1.0820669879
 H,0,5.3351366632,0.2629005678,-2.599151079
 C,0,7.1702953476,0.8677955652,0.2102301091
 H,0,7.1379939401,-0.3644494819,1.9748410184
 H,0,6.9926029396,1.858127345,-1.6933286279
 C,0,8.129026993,1.8722441476,0.7928829235
 H,0,7.5994831385,2.5452996198,1.4778512336
 H,0,8.9213348607,1.3805818165,1.3654780663
 H,0,8.5932480041,2.4843608969,0.0149852374
 Recover connectivity data from disk.
                           ----------------------------
                           !    Current Parameters    !
                           ! (Angstroms and Degrees)  !
 --------------------------                            --------------------------
 ! Name  Definition              Value          Derivative Info.                !
 --------------------------------------------------------------------------------
 ! R1    R(1,2)                  1.3895         estimate D2E/DX2                !
 ! R2    R(1,6)                  1.3967         estimate D2E/DX2                !
 ! R3    R(1,43)                 1.0856         estimate D2E/DX2                !
 ! R4    R(2,3)                  1.3942         estimate D2E/DX2                !
 ! R5    R(2,44)                 1.0858         estimate D2E/DX2                !
 ! R6    R(3,4)                  1.3913         estimate D2E/DX2                !
 ! R7    R(3,45)                 1.0859         estimate D2E/DX2                !
 ! R8    R(4,5)                  1.3932         estimate D2E/DX2                !
 ! R9    R(4,46)                 1.0859         estimate D2E/DX2                !
 ! R10   R(5,6)                  1.3934         estimate D2E/DX2                !
 ! R11   R(5,69)                 1.0871         estimate D2E/DX2                !
 ! R12   R(6,7)                  1.5258         estimate D2E/DX2                !
 ! R13   R(7,11)                 1.4675         estimate D2E/DX2                !
 ! R14   R(7,21)                 1.4991         estimate D2E/DX2                !
 ! R15   R(7,47)                 1.0917         estimate D2E/DX2                !
 ! R16   R(8,10)                 1.4574         estimate D2E/DX2                !
 ! R17   R(9,10)                 1.4576         estimate D2E/DX2                !
 ! R18   R(10,11)                1.6555         estimate D2E/DX2                !
 ! R19   R(10,70)                1.7757         estimate D2E/DX2                !
 ! R20   R(11,48)                1.0159         estimate D2E/DX2                !
 ! R21   R(12,13)                1.3917         estimate D2E/DX2                !
 ! R22   R(12,18)                1.3925         estimate D2E/DX2                !
 ! R23   R(12,49)                1.0846         estimate D2E/DX2                !
 ! R24   R(13,14)                1.3917         estimate D2E/DX2                !
 ! R25   R(13,50)                1.0859         estimate D2E/DX2                !
 ! R26   R(14,15)                1.3954         estimate D2E/DX2                !
 ! R27   R(14,51)                1.0862         estimate D2E/DX2                !
 ! R28   R(15,16)                1.3897         estimate D2E/DX2                !
 ! R29   R(15,52)                1.086          estimate D2E/DX2                !
 ! R30   R(16,18)                1.3958         estimate D2E/DX2                !
 ! R31   R(16,53)                1.085          estimate D2E/DX2                !
 ! R32   R(17,19)                1.2207         estimate D2E/DX2                !
 ! R33   R(18,19)                1.5008         estimate D2E/DX2                !
 ! R34   R(19,20)                1.4527         estimate D2E/DX2                !
 ! R35   R(20,21)                1.3483         estimate D2E/DX2                !
 ! R36   R(21,22)                1.2754         estimate D2E/DX2                !
 ! R37   R(22,24)                1.3941         estimate D2E/DX2                !
 ! R38   R(23,27)                1.8108         estimate D2E/DX2                !
 ! R39   R(23,28)                1.3988         estimate D2E/DX2                !
 ! R40   R(23,32)                1.3997         estimate D2E/DX2                !
 ! R41   R(24,27)                1.6227         estimate D2E/DX2                !
 ! R42   R(25,27)                1.8007         estimate D2E/DX2                !
 ! R43   R(25,33)                1.3953         estimate D2E/DX2                !
 ! R44   R(25,37)                1.3998         estimate D2E/DX2                !
 ! R45   R(26,27)                1.8141         estimate D2E/DX2                !
 ! R46   R(26,38)                1.3991         estimate D2E/DX2                !
 ! R47   R(26,42)                1.3992         estimate D2E/DX2                !
 ! R48   R(28,29)                1.3907         estimate D2E/DX2                !
 ! R49   R(28,54)                1.0858         estimate D2E/DX2                !
 ! R50   R(29,30)                1.3937         estimate D2E/DX2                !
 ! R51   R(29,55)                1.0853         estimate D2E/DX2                !
 ! R52   R(30,31)                1.3929         estimate D2E/DX2                !
 ! R53   R(30,56)                1.0858         estimate D2E/DX2                !
 ! R54   R(31,32)                1.3917         estimate D2E/DX2                !
 ! R55   R(31,57)                1.0854         estimate D2E/DX2                !
 ! R56   R(32,58)                1.088          estimate D2E/DX2                !
 ! R57   R(33,34)                1.3923         estimate D2E/DX2                !
 ! R58   R(33,59)                1.0854         estimate D2E/DX2                !
 ! R59   R(34,35)                1.3915         estimate D2E/DX2                !
 ! R60   R(34,60)                1.0852         estimate D2E/DX2                !
 ! R61   R(35,36)                1.394          estimate D2E/DX2                !
 ! R62   R(35,61)                1.0857         estimate D2E/DX2                !
 ! R63   R(36,37)                1.388          estimate D2E/DX2                !
 ! R64   R(36,62)                1.0849         estimate D2E/DX2                !
 ! R65   R(37,63)                1.0856         estimate D2E/DX2                !
 ! R66   R(38,39)                1.3912         estimate D2E/DX2                !
 ! R67   R(38,64)                1.0856         estimate D2E/DX2                !
 ! R68   R(39,40)                1.3932         estimate D2E/DX2                !
 ! R69   R(39,65)                1.0854         estimate D2E/DX2                !
 ! R70   R(40,41)                1.3929         estimate D2E/DX2                !
 ! R71   R(40,66)                1.0856         estimate D2E/DX2                !
 ! R72   R(41,42)                1.3914         estimate D2E/DX2                !
 ! R73   R(41,67)                1.0853         estimate D2E/DX2                !
 ! R74   R(42,68)                1.0863         estimate D2E/DX2                !
 ! R75   R(70,71)                1.3913         estimate D2E/DX2                !
 ! R76   R(70,72)                1.392          estimate D2E/DX2                !
 ! R77   R(71,73)                1.3875         estimate D2E/DX2                !
 ! R78   R(71,74)                1.0837         estimate D2E/DX2                !
 ! R79   R(72,75)                1.3892         estimate D2E/DX2                !
 ! R80   R(72,76)                1.0854         estimate D2E/DX2                !
 ! R81   R(73,77)                1.398          estimate D2E/DX2                !
 ! R82   R(73,78)                1.0862         estimate D2E/DX2                !
 ! R83   R(75,77)                1.3978         estimate D2E/DX2                !
 ! R84   R(75,79)                1.0863         estimate D2E/DX2                !
 ! R85   R(77,80)                1.5058         estimate D2E/DX2                !
 ! R86   R(80,81)                1.0966         estimate D2E/DX2                !
 ! R87   R(80,82)                1.0942         estimate D2E/DX2                !
 ! R88   R(80,83)                1.0933         estimate D2E/DX2                !
 ! A1    A(2,1,6)              120.2894         estimate D2E/DX2                !
 ! A2    A(2,1,43)             119.6682         estimate D2E/DX2                !
 ! A3    A(6,1,43)             120.034          estimate D2E/DX2                !
 ! A4    A(1,2,3)              120.1886         estimate D2E/DX2                !
 ! A5    A(1,2,44)             119.6846         estimate D2E/DX2                !
 ! A6    A(3,2,44)             120.126          estimate D2E/DX2                !
 ! A7    A(2,3,4)              119.7602         estimate D2E/DX2                !
 ! A8    A(2,3,45)             120.0767         estimate D2E/DX2                !
 ! A9    A(4,3,45)             120.1628         estimate D2E/DX2                !
 ! A10   A(3,4,5)              119.9824         estimate D2E/DX2                !
 ! A11   A(3,4,46)             120.2259         estimate D2E/DX2                !
 ! A12   A(5,4,46)             119.7894         estimate D2E/DX2                !
 ! A13   A(4,5,6)              120.4744         estimate D2E/DX2                !
 ! A14   A(4,5,69)             119.8835         estimate D2E/DX2                !
 ! A15   A(6,5,69)             119.6384         estimate D2E/DX2                !
 ! A16   A(1,6,5)              119.2984         estimate D2E/DX2                !
 ! A17   A(1,6,7)              121.3454         estimate D2E/DX2                !
 ! A18   A(5,6,7)              119.3547         estimate D2E/DX2                !
 ! A19   A(6,7,11)             115.6879         estimate D2E/DX2                !
 ! A20   A(6,7,21)             110.4205         estimate D2E/DX2                !
 ! A21   A(6,7,47)             109.1439         estimate D2E/DX2                !
 ! A22   A(11,7,21)            106.7967         estimate D2E/DX2                !
 ! A23   A(11,7,47)            107.46           estimate D2E/DX2                !
 ! A24   A(21,7,47)            106.9483         estimate D2E/DX2                !
 ! A25   A(8,10,9)             121.0435         estimate D2E/DX2                !
 ! A26   A(8,10,11)            105.1488         estimate D2E/DX2                !
 ! A27   A(8,10,70)            107.792          estimate D2E/DX2                !
 ! A28   A(9,10,11)            106.1994         estimate D2E/DX2                !
 ! A29   A(9,10,70)            108.0143         estimate D2E/DX2                !
 ! A30   A(11,10,70)           108.0381         estimate D2E/DX2                !
 ! A31   A(7,11,10)            121.3474         estimate D2E/DX2                !
 ! A32   A(7,11,48)            115.2834         estimate D2E/DX2                !
 ! A33   A(10,11,48)           113.04           estimate D2E/DX2                !
 ! A34   A(13,12,18)           120.1845         estimate D2E/DX2                !
 ! A35   A(13,12,49)           120.9115         estimate D2E/DX2                !
 ! A36   A(18,12,49)           118.8993         estimate D2E/DX2                !
 ! A37   A(12,13,14)           119.9937         estimate D2E/DX2                !
 ! A38   A(12,13,50)           119.8116         estimate D2E/DX2                !
 ! A39   A(14,13,50)           120.1927         estimate D2E/DX2                !
 ! A40   A(13,14,15)           119.8851         estimate D2E/DX2                !
 ! A41   A(13,14,51)           120.1171         estimate D2E/DX2                !
 ! A42   A(15,14,51)           119.9978         estimate D2E/DX2                !
 ! A43   A(14,15,16)           120.1383         estimate D2E/DX2                !
 ! A44   A(14,15,52)           120.0602         estimate D2E/DX2                !
 ! A45   A(16,15,52)           119.8015         estimate D2E/DX2                !
 ! A46   A(15,16,18)           119.9679         estimate D2E/DX2                !
 ! A47   A(15,16,53)           120.4285         estimate D2E/DX2                !
 ! A48   A(18,16,53)           119.6014         estimate D2E/DX2                !
 ! A49   A(12,18,16)           119.83           estimate D2E/DX2                !
 ! A50   A(12,18,19)           117.7572         estimate D2E/DX2                !
 ! A51   A(16,18,19)           122.4125         estimate D2E/DX2                !
 ! A52   A(17,19,18)           123.0517         estimate D2E/DX2                !
 ! A53   A(17,19,20)           117.1869         estimate D2E/DX2                !
 ! A54   A(18,19,20)           110.6667         estimate D2E/DX2                !
 ! A55   A(19,20,21)           114.6447         estimate D2E/DX2                !
 ! A56   A(7,21,20)            115.3099         estimate D2E/DX2                !
 ! A57   A(7,21,22)            123.7633         estimate D2E/DX2                !
 ! A58   A(20,21,22)           120.8104         estimate D2E/DX2                !
 ! A59   A(21,22,24)           107.6284         estimate D2E/DX2                !
 ! A60   A(27,23,28)           122.0322         estimate D2E/DX2                !
 ! A61   A(27,23,32)           117.6994         estimate D2E/DX2                !
 ! A62   A(28,23,32)           120.2659         estimate D2E/DX2                !
 ! A63   A(22,24,27)           116.638          estimate D2E/DX2                !
 ! A64   A(27,25,33)           121.152          estimate D2E/DX2                !
 ! A65   A(27,25,37)           118.5808         estimate D2E/DX2                !
 ! A66   A(33,25,37)           120.2169         estimate D2E/DX2                !
 ! A67   A(27,26,38)           119.2422         estimate D2E/DX2                !
 ! A68   A(27,26,42)           120.7332         estimate D2E/DX2                !
 ! A69   A(38,26,42)           120.0161         estimate D2E/DX2                !
 ! A70   A(23,27,24)           114.0816         estimate D2E/DX2                !
 ! A71   A(23,27,25)           109.7294         estimate D2E/DX2                !
 ! A72   A(23,27,26)           107.1194         estimate D2E/DX2                !
 ! A73   A(24,27,25)           104.8333         estimate D2E/DX2                !
 ! A74   A(24,27,26)           113.46           estimate D2E/DX2                !
 ! A75   A(25,27,26)           107.4043         estimate D2E/DX2                !
 ! A76   A(23,28,29)           119.7596         estimate D2E/DX2                !
 ! A77   A(23,28,54)           120.5488         estimate D2E/DX2                !
 ! A78   A(29,28,54)           119.6901         estimate D2E/DX2                !
 ! A79   A(28,29,30)           120.0084         estimate D2E/DX2                !
 ! A80   A(28,29,55)           119.7859         estimate D2E/DX2                !
 ! A81   A(30,29,55)           120.2046         estimate D2E/DX2                !
 ! A82   A(29,30,31)           120.2483         estimate D2E/DX2                !
 ! A83   A(29,30,56)           119.8333         estimate D2E/DX2                !
 ! A84   A(31,30,56)           119.9178         estimate D2E/DX2                !
 ! A85   A(30,31,32)           120.1747         estimate D2E/DX2                !
 ! A86   A(30,31,57)           120.1505         estimate D2E/DX2                !
 ! A87   A(32,31,57)           119.6741         estimate D2E/DX2                !
 ! A88   A(23,32,31)           119.5412         estimate D2E/DX2                !
 ! A89   A(23,32,58)           119.9077         estimate D2E/DX2                !
 ! A90   A(31,32,58)           120.549          estimate D2E/DX2                !
 ! A91   A(25,33,34)           119.6859         estimate D2E/DX2                !
 ! A92   A(25,33,59)           120.3643         estimate D2E/DX2                !
 ! A93   A(34,33,59)           119.9492         estimate D2E/DX2                !
 ! A94   A(33,34,35)           120.0431         estimate D2E/DX2                !
 ! A95   A(33,34,60)           119.7107         estimate D2E/DX2                !
 ! A96   A(35,34,60)           120.2462         estimate D2E/DX2                !
 ! A97   A(34,35,36)           120.287          estimate D2E/DX2                !
 ! A98   A(34,35,61)           119.8731         estimate D2E/DX2                !
 ! A99   A(36,35,61)           119.8395         estimate D2E/DX2                !
 ! A100  A(35,36,37)           119.9784         estimate D2E/DX2                !
 ! A101  A(35,36,62)           120.2533         estimate D2E/DX2                !
 ! A102  A(37,36,62)           119.7644         estimate D2E/DX2                !
 ! A103  A(25,37,36)           119.7882         estimate D2E/DX2                !
 ! A104  A(25,37,63)           120.2691         estimate D2E/DX2                !
 ! A105  A(36,37,63)           119.9401         estimate D2E/DX2                !
 ! A106  A(26,38,39)           119.7102         estimate D2E/DX2                !
 ! A107  A(26,38,64)           119.8347         estimate D2E/DX2                !
 ! A108  A(39,38,64)           120.4545         estimate D2E/DX2                !
 ! A109  A(38,39,40)           120.197          estimate D2E/DX2                !
 ! A110  A(38,39,65)           119.6892         estimate D2E/DX2                !
 ! A111  A(40,39,65)           120.1137         estimate D2E/DX2                !
 ! A112  A(39,40,41)           120.1723         estimate D2E/DX2                !
 ! A113  A(39,40,66)           119.9379         estimate D2E/DX2                !
 ! A114  A(41,40,66)           119.8895         estimate D2E/DX2                !
 ! A115  A(40,41,42)           119.9852         estimate D2E/DX2                !
 ! A116  A(40,41,67)           120.2445         estimate D2E/DX2                !
 ! A117  A(42,41,67)           119.7693         estimate D2E/DX2                !
 ! A118  A(26,42,41)           119.9184         estimate D2E/DX2                !
 ! A119  A(26,42,68)           120.3544         estimate D2E/DX2                !
 ! A120  A(41,42,68)           119.725          estimate D2E/DX2                !
 ! A121  A(10,70,71)           119.5806         estimate D2E/DX2                !
 ! A122  A(10,70,72)           119.0962         estimate D2E/DX2                !
 ! A123  A(71,70,72)           121.1355         estimate D2E/DX2                !
 ! A124  A(70,71,73)           119.0436         estimate D2E/DX2                !
 ! A125  A(70,71,74)           120.0651         estimate D2E/DX2                !
 ! A126  A(73,71,74)           120.8844         estimate D2E/DX2                !
 ! A127  A(70,72,75)           119.0294         estimate D2E/DX2                !
 ! A128  A(70,72,76)           120.4897         estimate D2E/DX2                !
 ! A129  A(75,72,76)           120.4809         estimate D2E/DX2                !
 ! A130  A(71,73,77)           121.0825         estimate D2E/DX2                !
 ! A131  A(71,73,78)           119.3333         estimate D2E/DX2                !
 ! A132  A(77,73,78)           119.5756         estimate D2E/DX2                !
 ! A133  A(72,75,77)           121.0052         estimate D2E/DX2                !
 ! A134  A(72,75,79)           119.3552         estimate D2E/DX2                !
 ! A135  A(77,75,79)           119.6384         estimate D2E/DX2                !
 ! A136  A(73,77,75)           118.681          estimate D2E/DX2                !
 ! A137  A(73,77,80)           120.2742         estimate D2E/DX2                !
 ! A138  A(75,77,80)           121.0247         estimate D2E/DX2                !
 ! A139  A(77,80,81)           110.0983         estimate D2E/DX2                !
 ! A140  A(77,80,82)           111.3313         estimate D2E/DX2                !
 ! A141  A(77,80,83)           111.6224         estimate D2E/DX2                !
 ! A142  A(81,80,82)           107.3714         estimate D2E/DX2                !
 ! A143  A(81,80,83)           107.8079         estimate D2E/DX2                !
 ! A144  A(82,80,83)           108.4479         estimate D2E/DX2                !
 ! D1    D(6,1,2,3)             -0.6534         estimate D2E/DX2                !
 ! D2    D(6,1,2,44)           179.0103         estimate D2E/DX2                !
 ! D3    D(43,1,2,3)          -179.5978         estimate D2E/DX2                !
 ! D4    D(43,1,2,44)            0.0659         estimate D2E/DX2                !
 ! D5    D(2,1,6,5)              0.9505         estimate D2E/DX2                !
 ! D6    D(2,1,6,7)           -179.5081         estimate D2E/DX2                !
 ! D7    D(43,1,6,5)           179.891          estimate D2E/DX2                !
 ! D8    D(43,1,6,7)            -0.5676         estimate D2E/DX2                !
 ! D9    D(1,2,3,4)             -0.0407         estimate D2E/DX2                !
 ! D10   D(1,2,3,45)           179.7802         estimate D2E/DX2                !
 ! D11   D(44,2,3,4)          -179.7029         estimate D2E/DX2                !
 ! D12   D(44,2,3,45)            0.118          estimate D2E/DX2                !
 ! D13   D(2,3,4,5)              0.4279         estimate D2E/DX2                !
 ! D14   D(2,3,4,46)           179.8855         estimate D2E/DX2                !
 ! D15   D(45,3,4,5)          -179.3928         estimate D2E/DX2                !
 ! D16   D(45,3,4,46)            0.0648         estimate D2E/DX2                !
 ! D17   D(3,4,5,6)             -0.1238         estimate D2E/DX2                !
 ! D18   D(3,4,5,69)           179.1737         estimate D2E/DX2                !
 ! D19   D(46,4,5,6)          -179.5838         estimate D2E/DX2                !
 ! D20   D(46,4,5,69)           -0.2862         estimate D2E/DX2                !
 ! D21   D(4,5,6,1)             -0.5628         estimate D2E/DX2                !
 ! D22   D(4,5,6,7)            179.8866         estimate D2E/DX2                !
 ! D23   D(69,5,6,1)          -179.8621         estimate D2E/DX2                !
 ! D24   D(69,5,6,7)             0.5873         estimate D2E/DX2                !
 ! D25   D(1,6,7,11)            49.8874         estimate D2E/DX2                !
 ! D26   D(1,6,7,21)           -71.5289         estimate D2E/DX2                !
 ! D27   D(1,6,7,47)           171.1803         estimate D2E/DX2                !
 ! D28   D(5,6,7,11)          -130.5714         estimate D2E/DX2                !
 ! D29   D(5,6,7,21)           108.0122         estimate D2E/DX2                !
 ! D30   D(5,6,7,47)            -9.2786         estimate D2E/DX2                !
 ! D31   D(6,7,11,10)           65.2417         estimate D2E/DX2                !
 ! D32   D(6,7,11,48)          -77.3704         estimate D2E/DX2                !
 ! D33   D(21,7,11,10)        -171.4173         estimate D2E/DX2                !
 ! D34   D(21,7,11,48)          45.9706         estimate D2E/DX2                !
 ! D35   D(47,7,11,10)         -56.9515         estimate D2E/DX2                !
 ! D36   D(47,7,11,48)         160.4364         estimate D2E/DX2                !
 ! D37   D(6,7,21,20)           72.4699         estimate D2E/DX2                !
 ! D38   D(6,7,21,22)         -103.627          estimate D2E/DX2                !
 ! D39   D(11,7,21,20)         -54.0806         estimate D2E/DX2                !
 ! D40   D(11,7,21,22)         129.8225         estimate D2E/DX2                !
 ! D41   D(47,7,21,20)        -168.8919         estimate D2E/DX2                !
 ! D42   D(47,7,21,22)          15.0112         estimate D2E/DX2                !
 ! D43   D(8,10,11,7)          172.8824         estimate D2E/DX2                !
 ! D44   D(8,10,11,48)         -43.7468         estimate D2E/DX2                !
 ! D45   D(9,10,11,7)           43.4628         estimate D2E/DX2                !
 ! D46   D(9,10,11,48)        -173.1665         estimate D2E/DX2                !
 ! D47   D(70,10,11,7)         -72.214          estimate D2E/DX2                !
 ! D48   D(70,10,11,48)         71.1567         estimate D2E/DX2                !
 ! D49   D(8,10,70,71)        -147.8571         estimate D2E/DX2                !
 ! D50   D(8,10,70,72)          37.0648         estimate D2E/DX2                !
 ! D51   D(9,10,70,71)         -15.4908         estimate D2E/DX2                !
 ! D52   D(9,10,70,72)         169.4312         estimate D2E/DX2                !
 ! D53   D(11,10,70,71)         98.9925         estimate D2E/DX2                !
 ! D54   D(11,10,70,72)        -76.0856         estimate D2E/DX2                !
 ! D55   D(18,12,13,14)         -0.0446         estimate D2E/DX2                !
 ! D56   D(18,12,13,50)       -179.5236         estimate D2E/DX2                !
 ! D57   D(49,12,13,14)        179.1559         estimate D2E/DX2                !
 ! D58   D(49,12,13,50)         -0.3231         estimate D2E/DX2                !
 ! D59   D(13,12,18,16)         -0.1443         estimate D2E/DX2                !
 ! D60   D(13,12,18,19)        179.6456         estimate D2E/DX2                !
 ! D61   D(49,12,18,16)       -179.3607         estimate D2E/DX2                !
 ! D62   D(49,12,18,19)          0.4292         estimate D2E/DX2                !
 ! D63   D(12,13,14,15)          0.1177         estimate D2E/DX2                !
 ! D64   D(12,13,14,51)       -179.8034         estimate D2E/DX2                !
 ! D65   D(50,13,14,15)        179.5947         estimate D2E/DX2                !
 ! D66   D(50,13,14,51)         -0.3264         estimate D2E/DX2                !
 ! D67   D(13,14,15,16)         -0.0015         estimate D2E/DX2                !
 ! D68   D(13,14,15,52)        179.9695         estimate D2E/DX2                !
 ! D69   D(51,14,15,16)        179.9197         estimate D2E/DX2                !
 ! D70   D(51,14,15,52)         -0.1093         estimate D2E/DX2                !
 ! D71   D(14,15,16,18)         -0.1875         estimate D2E/DX2                !
 ! D72   D(14,15,16,53)       -179.6552         estimate D2E/DX2                !
 ! D73   D(52,15,16,18)        179.8415         estimate D2E/DX2                !
 ! D74   D(52,15,16,53)          0.3737         estimate D2E/DX2                !
 ! D75   D(15,16,18,12)          0.2601         estimate D2E/DX2                !
 ! D76   D(15,16,18,19)       -179.5197         estimate D2E/DX2                !
 ! D77   D(53,16,18,12)        179.7322         estimate D2E/DX2                !
 ! D78   D(53,16,18,19)         -0.0475         estimate D2E/DX2                !
 ! D79   D(12,18,19,17)          2.9241         estimate D2E/DX2                !
 ! D80   D(12,18,19,20)        148.8219         estimate D2E/DX2                !
 ! D81   D(16,18,19,17)       -177.2918         estimate D2E/DX2                !
 ! D82   D(16,18,19,20)        -31.394          estimate D2E/DX2                !
 ! D83   D(17,19,20,21)        -85.6746         estimate D2E/DX2                !
 ! D84   D(18,19,20,21)        126.2167         estimate D2E/DX2                !
 ! D85   D(19,20,21,7)         161.5208         estimate D2E/DX2                !
 ! D86   D(19,20,21,22)        -22.257          estimate D2E/DX2                !
 ! D87   D(7,21,22,24)         173.4019         estimate D2E/DX2                !
 ! D88   D(20,21,22,24)         -2.4895         estimate D2E/DX2                !
 ! D89   D(21,22,24,27)        160.6142         estimate D2E/DX2                !
 ! D90   D(28,23,27,24)        152.2716         estimate D2E/DX2                !
 ! D91   D(28,23,27,25)        -90.4583         estimate D2E/DX2                !
 ! D92   D(28,23,27,26)         25.8346         estimate D2E/DX2                !
 ! D93   D(32,23,27,24)        -28.2921         estimate D2E/DX2                !
 ! D94   D(32,23,27,25)         88.9781         estimate D2E/DX2                !
 ! D95   D(32,23,27,26)       -154.7291         estimate D2E/DX2                !
 ! D96   D(27,23,28,29)        178.897          estimate D2E/DX2                !
 ! D97   D(27,23,28,54)         -1.5495         estimate D2E/DX2                !
 ! D98   D(32,23,28,29)         -0.5252         estimate D2E/DX2                !
 ! D99   D(32,23,28,54)        179.0283         estimate D2E/DX2                !
 ! D100  D(27,23,32,31)       -178.9975         estimate D2E/DX2                !
 ! D101  D(27,23,32,58)          0.4821         estimate D2E/DX2                !
 ! D102  D(28,23,32,31)          0.4492         estimate D2E/DX2                !
 ! D103  D(28,23,32,58)        179.9289         estimate D2E/DX2                !
 ! D104  D(22,24,27,23)        -55.2628         estimate D2E/DX2                !
 ! D105  D(22,24,27,25)       -175.3204         estimate D2E/DX2                !
 ! D106  D(22,24,27,26)         67.7921         estimate D2E/DX2                !
 ! D107  D(33,25,27,23)        -14.9501         estimate D2E/DX2                !
 ! D108  D(33,25,27,24)        107.9656         estimate D2E/DX2                !
 ! D109  D(33,25,27,26)       -131.0631         estimate D2E/DX2                !
 ! D110  D(37,25,27,23)        167.6258         estimate D2E/DX2                !
 ! D111  D(37,25,27,24)        -69.4585         estimate D2E/DX2                !
 ! D112  D(37,25,27,26)         51.5128         estimate D2E/DX2                !
 ! D113  D(27,25,33,34)       -177.4173         estimate D2E/DX2                !
 ! D114  D(27,25,33,59)          2.3265         estimate D2E/DX2                !
 ! D115  D(37,25,33,34)         -0.035          estimate D2E/DX2                !
 ! D116  D(37,25,33,59)        179.7088         estimate D2E/DX2                !
 ! D117  D(27,25,37,36)        177.6275         estimate D2E/DX2                !
 ! D118  D(27,25,37,63)         -1.7776         estimate D2E/DX2                !
 ! D119  D(33,25,37,36)          0.1785         estimate D2E/DX2                !
 ! D120  D(33,25,37,63)       -179.2266         estimate D2E/DX2                !
 ! D121  D(38,26,27,23)         93.7335         estimate D2E/DX2                !
 ! D122  D(38,26,27,24)        -33.0719         estimate D2E/DX2                !
 ! D123  D(38,26,27,25)       -148.4446         estimate D2E/DX2                !
 ! D124  D(42,26,27,23)        -85.2045         estimate D2E/DX2                !
 ! D125  D(42,26,27,24)        147.9901         estimate D2E/DX2                !
 ! D126  D(42,26,27,25)         32.6174         estimate D2E/DX2                !
 ! D127  D(27,26,38,39)       -178.8487         estimate D2E/DX2                !
 ! D128  D(27,26,38,64)          1.4162         estimate D2E/DX2                !
 ! D129  D(42,26,38,39)          0.0971         estimate D2E/DX2                !
 ! D130  D(42,26,38,64)       -179.638          estimate D2E/DX2                !
 ! D131  D(27,26,42,41)        178.6346         estimate D2E/DX2                !
 ! D132  D(27,26,42,68)         -1.9017         estimate D2E/DX2                !
 ! D133  D(38,26,42,41)         -0.2952         estimate D2E/DX2                !
 ! D134  D(38,26,42,68)        179.1685         estimate D2E/DX2                !
 ! D135  D(23,28,29,30)          0.317          estimate D2E/DX2                !
 ! D136  D(23,28,29,55)        179.9372         estimate D2E/DX2                !
 ! D137  D(54,28,29,30)       -179.2404         estimate D2E/DX2                !
 ! D138  D(54,28,29,55)          0.3798         estimate D2E/DX2                !
 ! D139  D(28,29,30,31)         -0.0358         estimate D2E/DX2                !
 ! D140  D(28,29,30,56)        179.6825         estimate D2E/DX2                !
 ! D141  D(55,29,30,31)       -179.6544         estimate D2E/DX2                !
 ! D142  D(55,29,30,56)          0.0638         estimate D2E/DX2                !
 ! D143  D(29,30,31,32)         -0.0398         estimate D2E/DX2                !
 ! D144  D(29,30,31,57)        179.6598         estimate D2E/DX2                !
 ! D145  D(56,30,31,32)       -179.7578         estimate D2E/DX2                !
 ! D146  D(56,30,31,57)         -0.0582         estimate D2E/DX2                !
 ! D147  D(30,31,32,23)         -0.1663         estimate D2E/DX2                !
 ! D148  D(30,31,32,58)       -179.6425         estimate D2E/DX2                !
 ! D149  D(57,31,32,23)       -179.8674         estimate D2E/DX2                !
 ! D150  D(57,31,32,58)          0.6564         estimate D2E/DX2                !
 ! D151  D(25,33,34,35)         -0.1703         estimate D2E/DX2                !
 ! D152  D(25,33,34,60)        179.9083         estimate D2E/DX2                !
 ! D153  D(59,33,34,35)       -179.9152         estimate D2E/DX2                !
 ! D154  D(59,33,34,60)          0.1635         estimate D2E/DX2                !
 ! D155  D(33,34,35,36)          0.2333         estimate D2E/DX2                !
 ! D156  D(33,34,35,61)       -179.9944         estimate D2E/DX2                !
 ! D157  D(60,34,35,36)       -179.8458         estimate D2E/DX2                !
 ! D158  D(60,34,35,61)         -0.0735         estimate D2E/DX2                !
 ! D159  D(34,35,36,37)         -0.089          estimate D2E/DX2                !
 ! D160  D(34,35,36,62)        179.1927         estimate D2E/DX2                !
 ! D161  D(61,35,36,37)       -179.8613         estimate D2E/DX2                !
 ! D162  D(61,35,36,62)         -0.5797         estimate D2E/DX2                !
 ! D163  D(35,36,37,25)         -0.1164         estimate D2E/DX2                !
 ! D164  D(35,36,37,63)        179.2907         estimate D2E/DX2                !
 ! D165  D(62,36,37,25)       -179.4015         estimate D2E/DX2                !
 ! D166  D(62,36,37,63)          0.0056         estimate D2E/DX2                !
 ! D167  D(26,38,39,40)          0.1436         estimate D2E/DX2                !
 ! D168  D(26,38,39,65)       -179.756          estimate D2E/DX2                !
 ! D169  D(64,38,39,40)        179.8771         estimate D2E/DX2                !
 ! D170  D(64,38,39,65)         -0.0225         estimate D2E/DX2                !
 ! D171  D(38,39,40,41)         -0.1872         estimate D2E/DX2                !
 ! D172  D(38,39,40,66)       -179.9606         estimate D2E/DX2                !
 ! D173  D(65,39,40,41)        179.712          estimate D2E/DX2                !
 ! D174  D(65,39,40,66)         -0.0614         estimate D2E/DX2                !
 ! D175  D(39,40,41,42)         -0.0119         estimate D2E/DX2                !
 ! D176  D(39,40,41,67)       -179.6608         estimate D2E/DX2                !
 ! D177  D(66,40,41,42)        179.7616         estimate D2E/DX2                !
 ! D178  D(66,40,41,67)          0.1127         estimate D2E/DX2                !
 ! D179  D(40,41,42,26)          0.2523         estimate D2E/DX2                !
 ! D180  D(40,41,42,68)       -179.2147         estimate D2E/DX2                !
 ! D181  D(67,41,42,26)        179.9028         estimate D2E/DX2                !
 ! D182  D(67,41,42,68)          0.4357         estimate D2E/DX2                !
 ! D183  D(10,70,71,73)       -174.0997         estimate D2E/DX2                !
 ! D184  D(10,70,71,74)          4.9512         estimate D2E/DX2                !
 ! D185  D(72,70,71,73)          0.8754         estimate D2E/DX2                !
 ! D186  D(72,70,71,74)        179.9263         estimate D2E/DX2                !
 ! D187  D(10,70,72,75)        174.0441         estimate D2E/DX2                !
 ! D188  D(10,70,72,76)         -5.9199         estimate D2E/DX2                !
 ! D189  D(71,70,72,75)         -0.9548         estimate D2E/DX2                !
 ! D190  D(71,70,72,76)        179.0811         estimate D2E/DX2                !
 ! D191  D(70,71,73,77)          0.3828         estimate D2E/DX2                !
 ! D192  D(70,71,73,78)        179.3058         estimate D2E/DX2                !
 ! D193  D(74,71,73,77)       -178.6601         estimate D2E/DX2                !
 ! D194  D(74,71,73,78)          0.263          estimate D2E/DX2                !
 ! D195  D(70,72,75,77)         -0.2214         estimate D2E/DX2                !
 ! D196  D(70,72,75,79)       -179.8164         estimate D2E/DX2                !
 ! D197  D(76,72,75,77)        179.7426         estimate D2E/DX2                !
 ! D198  D(76,72,75,79)          0.1477         estimate D2E/DX2                !
 ! D199  D(71,73,77,75)         -1.5158         estimate D2E/DX2                !
 ! D200  D(71,73,77,80)        176.8686         estimate D2E/DX2                !
 ! D201  D(78,73,77,75)        179.5637         estimate D2E/DX2                !
 ! D202  D(78,73,77,80)         -2.0519         estimate D2E/DX2                !
 ! D203  D(72,75,77,73)          1.4328         estimate D2E/DX2                !
 ! D204  D(72,75,77,80)       -176.939          estimate D2E/DX2                !
 ! D205  D(79,75,77,73)       -178.9734         estimate D2E/DX2                !
 ! D206  D(79,75,77,80)          2.6548         estimate D2E/DX2                !
 ! D207  D(73,77,80,81)        -77.1763         estimate D2E/DX2                !
 ! D208  D(73,77,80,82)         41.7838         estimate D2E/DX2                !
 ! D209  D(73,77,80,83)        163.1309         estimate D2E/DX2                !
 ! D210  D(75,77,80,81)        101.1697         estimate D2E/DX2                !
 ! D211  D(75,77,80,82)       -139.8702         estimate D2E/DX2                !
 ! D212  D(75,77,80,83)        -18.5231         estimate D2E/DX2                !
 --------------------------------------------------------------------------------
 Stoichiometry    C40H34N3O4PS
 Framework group  C1[X(C40H34N3O4PS)]
 Deg. of freedom   243
 Full point group                 C1      NOp   1
 Largest Abelian subgroup         C1      NOp   1
 Largest concise Abelian subgroup C1      NOp   1
                         Standard orientation:                         
 ---------------------------------------------------------------------
 Center     Atomic      Atomic             Coordinates (Angstroms)
 Number     Number       Type             X           Y           Z
 ---------------------------------------------------------------------
      1          6           0        3.245844    1.180339    0.657552
      2          6           0        3.978665    1.968561    1.536481
      3          6           0        4.233204    1.522501    2.832636
      4          6           0        3.749930    0.284501    3.244327
      5          6           0        3.022266   -0.508134    2.359396
      6          6           0        2.770662   -0.069577    1.060948
      7          6           0        1.973170   -0.959532    0.112210
      8          8           0        4.167102   -2.135823   -2.835775
      9          8           0        3.921547   -3.143983   -0.519978
     10         16           0        3.998307   -1.981811   -1.396432
     11          7           0        2.567312   -1.169737   -1.213085
     12          6           0       -1.969079    3.091506   -2.014013
     13          6           0       -2.385690    4.393075   -1.750975
     14          6           0       -1.994975    5.024102   -0.573748
     15          6           0       -1.183534    4.350456    0.339933
     16          6           0       -0.765322    3.051596    0.076507
     17          8           0       -1.048736    0.464321   -2.485749
     18          6           0       -1.160542    2.417458   -1.102414
     19          6           0       -0.749998    1.013279   -1.437136
     20          8           0        0.558743    0.715478   -0.881405
     21          6           0        0.604354   -0.390744   -0.111952
     22          7           0       -0.452513   -0.850877    0.433827
     23          6           0       -3.294094   -2.104073   -0.667603
     24          7           0       -1.500903    0.012006    0.117753
     25          6           0       -4.079980    0.724390   -0.343529
     26          6           0       -3.478098   -0.914706    1.988567
     27         15           0       -3.003263   -0.582238    0.269588
     28          6           0       -4.240246   -3.052999   -0.266535
     29          6           0       -4.441249   -4.194711   -1.034650
     30          6           0       -3.696674   -4.393553   -2.195888
     31          6           0       -2.750206   -3.451638   -2.592467
     32          6           0       -2.542834   -2.305113   -1.831392
     33          6           0       -4.739291    0.601691   -1.567149
     34          6           0       -5.521794    1.652959   -2.037229
     35          6           0       -5.646976    2.818042   -1.286710
     36          6           0       -4.987415    2.941491   -0.064833
     37          6           0       -4.203239    1.898587    0.408504
     38          6           0       -2.501173   -1.332260    2.898950
     39          6           0       -2.858938   -1.613084    4.213740
     40          6           0       -4.184406   -1.482347    4.622486
     41          6           0       -5.158207   -1.065902    3.717739
     42          6           0       -4.807873   -0.779107    2.402058
     43          1           0        3.058203    1.533086   -0.351896
     44          1           0        4.357081    2.931603    1.207409
     45          1           0        4.809145    2.138411    3.516880
     46          1           0        3.945300   -0.071145    4.251521
     47          1           0        1.838727   -1.941320    0.570378
     48          1           0        2.463240   -0.395847   -1.862932
     49          1           0       -2.275847    2.580704   -2.920306
     50          1           0       -3.022472    4.910255   -2.462422
     51          1           0       -2.321589    6.038759   -0.364940
     52          1           0       -0.876526    4.840368    1.259290
     53          1           0       -0.138881    2.521371    0.786266
     54          1           0       -4.814380   -2.909287    0.643765
     55          1           0       -5.174565   -4.931786   -0.723303
     56          1           0       -3.852280   -5.288486   -2.790704
     57          1           0       -2.167338   -3.610755   -3.494127
     58          1           0       -1.809254   -1.562635   -2.138568
     59          1           0       -4.641602   -0.305840   -2.154444
     60          1           0       -6.033545    1.558540   -2.989544
     61          1           0       -6.257957    3.636077   -1.655871
     62          1           0       -5.074868    3.855095    0.513658
     63          1           0       -3.680632    1.999839    1.354621
     64          1           0       -1.469229   -1.430815    2.576441
     65          1           0       -2.100125   -1.933149    4.920687
     66          1           0       -4.458804   -1.701978    5.649663
     67          1           0       -6.190118   -0.958374    4.036279
     68          1           0       -5.568395   -0.442384    1.703333
     69          1           0        2.656940   -1.480988    2.678505
     70          6           0        5.304681   -0.934040   -0.805964
     71          6           0        5.813694   -1.126339    0.474499
     72          6           0        5.728243    0.130506   -1.596497
     73          6           0        6.745864   -0.226432    0.971006
     74          1           0        5.470732   -1.960393    1.075494
     75          6           0        6.660961    1.022574   -1.082498
     76          1           0        5.335158    0.262093   -2.599582
     77          6           0        7.170444    0.866601    0.209799
     78          1           0        7.137883   -0.365638    1.974410
     79          1           0        6.992960    1.856970   -1.693760
     80          6           0        8.129387    1.870847    0.792452
     81          1           0        7.599985    2.544014    1.477420
     82          1           0        8.921592    1.379018    1.365047
     83          1           0        8.593737    2.482866    0.014554
 ---------------------------------------------------------------------
 Rotational constants (GHZ):           0.0939041           0.0387628           0.0362161
 Electric field and nuclear coordinate derivatives read from checkpoint file.
 Rotating derivatives to standard orientation.
 Full mass-weighted force constant matrix:
 Low frequencies --- -155.9028   -3.1244   -0.0097   -0.0037    0.0164    3.0859
 Low frequencies ---    5.2978   11.9000   13.8123
 ******    1 imaginary frequencies (negative Signs) ****** 
 Diagonal vibrational polarizability:
      354.5893447     288.1451763     578.5093069
 Harmonic frequencies (cm**-1), IR intensities (KM/Mole), Raman scattering
 activities (A**4/AMU), depolarization ratios for plane and unpolarized
 incident light, reduced masses (AMU), force constants (mDyne/A),
 and normal coordinates:
                      1                      2                      3
                      A                      A                      A
 Frequencies --   -155.9021                11.8965                13.7609
 Red. masses --     10.1538                 6.1418                 5.4905
 Frc consts  --      0.1454                 0.0005                 0.0006
 IR Inten    --    125.1805                 1.2984                 2.2995
  Atom  AN      X      Y      Z        X      Y      Z        X      Y      Z
     1   6    -0.00   0.01  -0.01     0.05   0.06  -0.07     0.03   0.03  -0.06
     2   6     0.00  -0.00  -0.01     0.08   0.09  -0.12     0.02   0.03  -0.05
     3   6    -0.01  -0.01  -0.01     0.07   0.16  -0.10    -0.04   0.05  -0.03
     4   6    -0.02  -0.01  -0.02     0.04   0.20  -0.02    -0.08   0.07  -0.02
     5   6    -0.03   0.00  -0.02     0.02   0.16   0.03    -0.06   0.07  -0.03
     6   6    -0.02   0.01  -0.02     0.03   0.09   0.00    -0.01   0.05  -0.05
     7   6    -0.03   0.02  -0.03     0.00   0.06   0.05     0.01   0.05  -0.06
     8   8     0.01  -0.00  -0.00    -0.06  -0.10   0.07     0.03   0.07  -0.06
     9   8    -0.01   0.01   0.00    -0.06  -0.02   0.11    -0.06  -0.01  -0.11
    10  16    -0.00   0.00  -0.00    -0.04  -0.05   0.07    -0.00   0.02  -0.06
    11   7    -0.00   0.01  -0.02    -0.02  -0.01   0.05     0.02   0.06  -0.06
    12   6     0.03   0.07  -0.08    -0.02   0.02   0.04    -0.06   0.01  -0.01
    13   6    -0.06   0.02   0.01    -0.03   0.02   0.04    -0.07   0.00  -0.01
    14   6    -0.06  -0.02   0.03    -0.05   0.02   0.04    -0.06   0.01  -0.01
    15   6    -0.00  -0.01  -0.02    -0.05   0.03   0.04    -0.04   0.02  -0.02
    16   6     0.11   0.04  -0.11    -0.03   0.03   0.04    -0.03   0.02  -0.03
    17   8     0.26   0.10  -0.16     0.02   0.04   0.03    -0.04   0.02  -0.03
    18   6     0.15   0.10  -0.16    -0.02   0.03   0.04    -0.04   0.02  -0.03
    19   6     0.40   0.26  -0.34    -0.00   0.03   0.04    -0.03   0.02  -0.03
    20   8     0.04   0.08  -0.02    -0.00   0.05   0.05    -0.02   0.04  -0.05
    21   6    -0.04  -0.01  -0.04     0.00   0.05   0.05     0.00   0.03  -0.06
    22   7    -0.01  -0.01   0.00     0.00   0.04   0.04     0.01   0.02  -0.04
    23   6    -0.04  -0.03   0.03     0.03   0.01  -0.03     0.02  -0.01   0.01
    24   7    -0.09  -0.08   0.21    -0.01   0.02   0.02     0.00   0.02  -0.03
    25   6    -0.00  -0.03   0.05    -0.01  -0.00   0.00    -0.01  -0.01   0.01
    26   6    -0.13  -0.09   0.05    -0.02  -0.04  -0.02     0.05   0.01   0.01
    27  15    -0.03  -0.06   0.10    -0.00   0.00  -0.01     0.01   0.00   0.00
    28   6    -0.04  -0.04  -0.01     0.02   0.01  -0.07     0.04  -0.02   0.04
    29   6    -0.02  -0.03  -0.03     0.04   0.01  -0.09     0.04  -0.03   0.04
    30   6     0.00  -0.00  -0.02     0.07   0.03  -0.07     0.02  -0.02   0.03
    31   6    -0.00   0.01   0.01     0.08   0.03  -0.04    -0.00  -0.00   0.01
    32   6    -0.02  -0.00   0.04     0.06   0.03  -0.02    -0.00   0.00  -0.00
    33   6     0.00  -0.03   0.04    -0.02  -0.00   0.01    -0.03  -0.03   0.02
    34   6     0.02  -0.02   0.02    -0.03  -0.01   0.02    -0.05  -0.04   0.03
    35   6     0.02  -0.01   0.01    -0.03  -0.01   0.02    -0.06  -0.04   0.03
    36   6     0.02  -0.01   0.01    -0.03  -0.01   0.02    -0.04  -0.03   0.02
    37   6     0.01  -0.02   0.02    -0.02  -0.01   0.01    -0.02  -0.01   0.01
    38   6    -0.10  -0.05   0.03    -0.03  -0.09  -0.03     0.07   0.05   0.00
    39   6    -0.05  -0.02   0.05    -0.04  -0.12  -0.04     0.09   0.06   0.01
    40   6    -0.04  -0.00   0.08    -0.04  -0.11  -0.04     0.10   0.03   0.03
    41   6    -0.07  -0.02   0.10    -0.03  -0.07  -0.03     0.07  -0.01   0.03
    42   6    -0.11  -0.07   0.08    -0.02  -0.03  -0.02     0.05  -0.02   0.03
    43   1     0.01   0.01  -0.01     0.06   0.00  -0.09     0.08   0.02  -0.07
    44   1     0.01  -0.01  -0.00     0.10   0.06  -0.18     0.05   0.02  -0.05
    45   1    -0.00  -0.02  -0.00     0.09   0.19  -0.14    -0.05   0.06  -0.02
    46   1    -0.02  -0.02  -0.02     0.04   0.25  -0.00    -0.13   0.09  -0.01
    47   1    -0.03   0.02  -0.03     0.01   0.08   0.10     0.02   0.04  -0.07
    48   1     0.02   0.01  -0.02    -0.01  -0.03   0.03     0.05   0.08  -0.05
    49   1     0.04   0.10  -0.11    -0.01   0.02   0.03    -0.07   0.01  -0.01
    50   1    -0.12   0.01   0.06    -0.04   0.01   0.03    -0.09  -0.00   0.01
    51   1    -0.12  -0.05   0.09    -0.06   0.01   0.04    -0.07   0.00  -0.01
    52   1    -0.03  -0.05   0.01    -0.06   0.03   0.05    -0.03   0.02  -0.03
    53   1     0.16   0.04  -0.16    -0.03   0.04   0.04    -0.01   0.03  -0.04
    54   1    -0.05  -0.06  -0.01    -0.00  -0.01  -0.08     0.06  -0.03   0.05
    55   1    -0.01  -0.04  -0.05     0.03   0.01  -0.11     0.06  -0.04   0.06
    56   1     0.02   0.00  -0.04     0.08   0.03  -0.08     0.03  -0.02   0.04
    57   1     0.02   0.03   0.02     0.10   0.05  -0.03    -0.02   0.00  -0.00
    58   1    -0.01  -0.01   0.07     0.06   0.03   0.00    -0.02   0.01  -0.02
    59   1    -0.01  -0.03   0.05    -0.01  -0.00   0.00    -0.02  -0.03   0.02
    60   1     0.02  -0.03   0.02    -0.03  -0.01   0.02    -0.06  -0.05   0.04
    61   1     0.03  -0.01  -0.00    -0.04  -0.02   0.03    -0.07  -0.05   0.03
    62   1     0.03  -0.00  -0.00    -0.03  -0.02   0.02    -0.05  -0.03   0.02
    63   1     0.00  -0.01   0.02    -0.01  -0.01   0.01    -0.01  -0.00   0.00
    64   1    -0.10  -0.03   0.00    -0.03  -0.10  -0.02     0.07   0.07  -0.01
    65   1    -0.03   0.01   0.04    -0.05  -0.16  -0.04     0.11   0.09   0.01
    66   1    -0.01   0.03   0.10    -0.05  -0.14  -0.05     0.12   0.03   0.03
    67   1    -0.06  -0.01   0.14    -0.03  -0.06  -0.04     0.07  -0.04   0.05
    68   1    -0.13  -0.08   0.09    -0.01   0.01  -0.02     0.03  -0.05   0.03
    69   1    -0.03   0.00  -0.03    -0.00   0.19   0.08    -0.10   0.08  -0.03
    70   6    -0.00   0.00   0.00    -0.01  -0.07   0.02     0.01  -0.04   0.02
    71   6    -0.00   0.00   0.00    -0.02  -0.02   0.03    -0.05  -0.08   0.04
    72   6     0.00  -0.00  -0.00     0.03  -0.12  -0.03     0.09  -0.04   0.06
    73   6    -0.00   0.00   0.00     0.01  -0.03  -0.01    -0.05  -0.13   0.10
    74   1    -0.01   0.00   0.00    -0.04   0.01   0.07    -0.11  -0.08   0.01
    75   6     0.00  -0.00  -0.00     0.05  -0.12  -0.07     0.10  -0.08   0.12
    76   1     0.00  -0.00  -0.00     0.03  -0.15  -0.04     0.14  -0.01   0.05
    77   6    -0.00  -0.00   0.00     0.05  -0.08  -0.06     0.03  -0.13   0.14
    78   1    -0.00   0.00   0.00     0.00   0.00  -0.00    -0.10  -0.16   0.12
    79   1     0.00  -0.00  -0.00     0.08  -0.16  -0.11     0.15  -0.08   0.15
    80   6     0.00  -0.00   0.00     0.08  -0.08  -0.10     0.03  -0.17   0.21
    81   1     0.00  -0.00   0.00     0.10  -0.03  -0.14     0.02  -0.15   0.18
    82   1     0.00  -0.00   0.00     0.06  -0.08  -0.08    -0.02  -0.21   0.25
    83   1     0.00  -0.00   0.00     0.10  -0.13  -0.13     0.10  -0.18   0.24
                      4                      5                      6
                      A                      A                      A
 Frequencies --     16.1271                22.3927                30.5274
 Red. masses --      6.0296                 5.1731                 4.9317
 Frc consts  --      0.0009                 0.0015                 0.0027
 IR Inten    --      0.5932                 0.3221                 0.4030
  Atom  AN      X      Y      Z        X      Y      Z        X      Y      Z
     1   6     0.03  -0.01   0.06    -0.02   0.00  -0.08     0.01  -0.01   0.03
     2   6     0.07  -0.05   0.07    -0.05   0.04  -0.08     0.02  -0.02   0.04
     3   6     0.10  -0.10   0.04    -0.07   0.08  -0.07     0.03  -0.04   0.03
     4   6     0.09  -0.11   0.02    -0.07   0.08  -0.04     0.03  -0.04   0.02
     5   6     0.05  -0.07   0.01    -0.04   0.05  -0.03     0.01  -0.03   0.01
     6   6     0.02  -0.02   0.03    -0.02   0.01  -0.05     0.01  -0.01   0.02
     7   6    -0.01   0.02   0.02    -0.00  -0.02  -0.04     0.01  -0.00   0.01
     8   8    -0.08   0.07  -0.06     0.02  -0.05  -0.01     0.03  -0.05   0.05
     9   8    -0.05   0.01  -0.08     0.01  -0.02   0.00     0.02   0.01   0.08
    10  16    -0.05   0.03  -0.05     0.01  -0.03  -0.01     0.02  -0.01   0.05
    11   7    -0.04   0.05   0.00     0.00  -0.04  -0.03     0.02  -0.01   0.02
    12   6    -0.01   0.03   0.02     0.04   0.07   0.10    -0.04  -0.03   0.01
    13   6    -0.03   0.02   0.01     0.07   0.07   0.17    -0.09  -0.05   0.02
    14   6    -0.07   0.03   0.02     0.10  -0.00   0.20    -0.10  -0.04   0.02
    15   6    -0.09   0.04   0.04     0.09  -0.07   0.16    -0.08  -0.02   0.01
    16   6    -0.06   0.04   0.05     0.06  -0.06   0.09    -0.03  -0.01   0.00
    17   8     0.03   0.04   0.05    -0.05   0.05  -0.02     0.05   0.01  -0.02
    18   6    -0.02   0.04   0.04     0.03   0.00   0.06    -0.02  -0.01   0.00
    19   6     0.00   0.04   0.05    -0.01   0.01  -0.01     0.02   0.00  -0.01
    20   8    -0.00   0.06   0.07    -0.01  -0.04  -0.05     0.01   0.01   0.02
    21   6    -0.00   0.04   0.05    -0.01  -0.04  -0.04     0.01   0.00  -0.00
    22   7    -0.01   0.03   0.04    -0.00  -0.03  -0.02     0.00  -0.02  -0.03
    23   6     0.06  -0.01   0.03     0.00  -0.03   0.01    -0.02   0.00  -0.04
    24   7    -0.01   0.03   0.04    -0.00  -0.03  -0.00     0.00  -0.02  -0.04
    25   6    -0.01  -0.02  -0.04     0.01  -0.02  -0.02    -0.02  -0.01  -0.00
    26   6    -0.04   0.03   0.00    -0.02   0.01  -0.00     0.02   0.01  -0.01
    27  15    -0.00   0.01   0.01    -0.00  -0.02  -0.00     0.00  -0.01  -0.02
    28   6     0.08  -0.03   0.02     0.04  -0.06   0.03    -0.02  -0.00  -0.05
    29   6     0.13  -0.05   0.04     0.06  -0.06   0.04    -0.05   0.03  -0.09
    30   6     0.16  -0.05   0.06     0.03  -0.04   0.02    -0.09   0.06  -0.11
    31   6     0.14  -0.03   0.06    -0.01  -0.01  -0.01    -0.08   0.06  -0.10
    32   6     0.09  -0.01   0.05    -0.02  -0.00  -0.01    -0.05   0.03  -0.06
    33   6     0.04  -0.04  -0.06     0.08   0.01  -0.06    -0.03  -0.01   0.00
    34   6     0.03  -0.06  -0.10     0.10   0.02  -0.08    -0.06  -0.02   0.03
    35   6    -0.02  -0.06  -0.11     0.06  -0.00  -0.06    -0.08  -0.03   0.06
    36   6    -0.07  -0.03  -0.09    -0.01  -0.02  -0.02    -0.06  -0.04   0.05
    37   6    -0.06  -0.01  -0.05    -0.03  -0.03  -0.00    -0.03  -0.03   0.02
    38   6    -0.05   0.09   0.04    -0.01   0.12   0.04     0.06   0.19   0.03
    39   6    -0.08   0.11   0.04    -0.02   0.15   0.04     0.07   0.25   0.05
    40   6    -0.09   0.07  -0.00    -0.03   0.08   0.01     0.05   0.12   0.02
    41   6    -0.08   0.01  -0.04    -0.04  -0.03  -0.03     0.01  -0.06  -0.03
    42   6    -0.06  -0.00  -0.04    -0.04  -0.06  -0.03    -0.00  -0.11  -0.04
    43   1     0.01   0.02   0.08    -0.01  -0.03  -0.09     0.01   0.00   0.04
    44   1     0.08  -0.05   0.09    -0.05   0.03  -0.11     0.03  -0.02   0.04
    45   1     0.12  -0.13   0.05    -0.09   0.10  -0.07     0.04  -0.05   0.03
    46   1     0.11  -0.14  -0.00    -0.08   0.11  -0.03     0.03  -0.06   0.01
    47   1    -0.02   0.01  -0.00     0.01  -0.01  -0.02    -0.01  -0.00   0.01
    48   1    -0.04   0.06   0.03     0.01  -0.05  -0.04     0.03  -0.01   0.02
    49   1     0.02   0.02   0.01     0.01   0.12   0.08    -0.03  -0.04   0.00
    50   1    -0.02   0.01  -0.00     0.07   0.12   0.21    -0.11  -0.06   0.02
    51   1    -0.09   0.02   0.02     0.12  -0.01   0.25    -0.14  -0.06   0.03
    52   1    -0.12   0.04   0.05     0.11  -0.12   0.18    -0.09  -0.02   0.02
    53   1    -0.07   0.05   0.07     0.06  -0.11   0.05    -0.02   0.01  -0.00
    54   1     0.06  -0.03   0.01     0.06  -0.07   0.05     0.00  -0.03  -0.03
    55   1     0.15  -0.07   0.04     0.09  -0.09   0.06    -0.05   0.03  -0.09
    56   1     0.21  -0.07   0.08     0.04  -0.04   0.02    -0.12   0.09  -0.14
    57   1     0.17  -0.03   0.08    -0.03   0.01  -0.02    -0.11   0.09  -0.12
    58   1     0.07   0.01   0.05    -0.05   0.02  -0.03    -0.04   0.03  -0.06
    59   1     0.08  -0.04  -0.05     0.11   0.02  -0.07    -0.02   0.00  -0.01
    60   1     0.07  -0.08  -0.12     0.15   0.04  -0.11    -0.07  -0.01   0.04
    61   1    -0.03  -0.07  -0.14     0.07   0.01  -0.08    -0.10  -0.04   0.08
    62   1    -0.11  -0.03  -0.10    -0.05  -0.04  -0.01    -0.07  -0.05   0.06
    63   1    -0.10   0.01  -0.03    -0.09  -0.05   0.03    -0.02  -0.04   0.01
    64   1    -0.04   0.12   0.07     0.00   0.17   0.06     0.07   0.29   0.05
    65   1    -0.09   0.15   0.06    -0.01   0.24   0.07     0.10   0.39   0.08
    66   1    -0.12   0.09  -0.01    -0.04   0.11   0.01     0.06   0.17   0.03
    67   1    -0.10  -0.01  -0.07    -0.06  -0.08  -0.05    -0.00  -0.15  -0.05
    68   1    -0.05  -0.05  -0.07    -0.05  -0.14  -0.06    -0.03  -0.24  -0.08
    69   1     0.05  -0.07  -0.01    -0.04   0.06  -0.01     0.01  -0.03   0.01
    70   6    -0.02  -0.00  -0.05    -0.00  -0.02  -0.01     0.03   0.00   0.02
    71   6     0.01  -0.05  -0.07    -0.03   0.01   0.01     0.04   0.02   0.02
    72   6    -0.03   0.02  -0.03     0.00  -0.03  -0.02     0.03  -0.02  -0.00
    73   6     0.03  -0.08  -0.07    -0.05   0.03   0.01     0.06   0.02  -0.01
    74   1     0.01  -0.06  -0.08    -0.03   0.02   0.02     0.04   0.04   0.04
    75   6    -0.00  -0.01  -0.03    -0.02  -0.01  -0.02     0.05  -0.02  -0.03
    76   1    -0.05   0.05  -0.01     0.02  -0.05  -0.03     0.02  -0.03  -0.00
    77   6     0.03  -0.06  -0.04    -0.04   0.02  -0.00     0.06  -0.00  -0.04
    78   1     0.06  -0.11  -0.08    -0.06   0.05   0.02     0.07   0.03  -0.01
    79   1    -0.01   0.00  -0.01    -0.01  -0.02  -0.02     0.05  -0.04  -0.05
    80   6     0.06  -0.09  -0.04    -0.07   0.04  -0.00     0.09  -0.01  -0.07
    81   1     0.10  -0.11  -0.00    -0.10   0.06  -0.03     0.12   0.01  -0.06
    82   1     0.08  -0.12  -0.08    -0.08   0.07   0.03     0.10  -0.01  -0.09
    83   1     0.05  -0.07  -0.04    -0.05   0.03  -0.00     0.08  -0.02  -0.09
                      7                      8                      9
                      A                      A                      A
 Frequencies --     37.3501                40.4262                42.5159
 Red. masses --      5.4258                 3.6185                 1.1386
 Frc consts  --      0.0045                 0.0035                 0.0012
 IR Inten    --      0.0797                 0.4549                 0.3655
  Atom  AN      X      Y      Z        X      Y      Z        X      Y      Z
     1   6     0.03   0.03  -0.03    -0.03   0.01   0.02    -0.00   0.00  -0.00
     2   6     0.04   0.05  -0.06    -0.03  -0.00   0.03    -0.00   0.01  -0.01
     3   6     0.05   0.08  -0.05    -0.03  -0.02   0.02    -0.01   0.01  -0.00
     4   6     0.05   0.09  -0.02    -0.04  -0.02   0.01    -0.00   0.01  -0.00
     5   6     0.05   0.07   0.01    -0.04  -0.01  -0.01     0.00   0.01   0.00
     6   6     0.03   0.04  -0.00    -0.03   0.01  -0.00     0.00   0.00  -0.00
     7   6     0.03   0.01   0.02    -0.01   0.01  -0.02     0.00  -0.00   0.00
     8   8    -0.01   0.11  -0.05     0.05   0.02   0.03    -0.01  -0.00  -0.00
     9   8     0.03   0.01  -0.09     0.02   0.05   0.04    -0.00  -0.01  -0.00
    10  16     0.01   0.05  -0.04     0.03   0.04   0.02    -0.00  -0.01  -0.00
    11   7     0.01   0.03   0.01     0.02   0.03  -0.01    -0.00  -0.01   0.00
    12   6     0.02  -0.05  -0.03    -0.01   0.03   0.02     0.00  -0.01  -0.00
    13   6     0.01  -0.05  -0.05    -0.00   0.03   0.05     0.01  -0.00  -0.01
    14   6    -0.04  -0.04  -0.04    -0.00  -0.00   0.07     0.02   0.01  -0.02
    15   6    -0.09  -0.04   0.01    -0.01  -0.03   0.05     0.02   0.01  -0.02
    16   6    -0.08  -0.04   0.03    -0.01  -0.03   0.02     0.01   0.01  -0.01
    17   8     0.01  -0.07   0.05    -0.04   0.02  -0.03     0.00  -0.01   0.00
    18   6    -0.03  -0.05   0.02    -0.02   0.00   0.00     0.00  -0.00  -0.00
    19   6    -0.00  -0.05   0.04    -0.02   0.01  -0.03     0.00  -0.00   0.00
    20   8    -0.00  -0.01   0.05    -0.02  -0.01  -0.04     0.00  -0.00   0.00
    21   6     0.02  -0.02   0.04    -0.02  -0.00  -0.03     0.00  -0.00   0.00
    22   7     0.02  -0.04   0.04    -0.01  -0.00  -0.03     0.00   0.00   0.01
    23   6    -0.04  -0.02   0.02    -0.03  -0.01   0.01     0.01   0.00  -0.00
    24   7     0.01  -0.06   0.05    -0.02  -0.01  -0.02     0.00   0.00   0.00
    25   6     0.04  -0.01   0.01    -0.02  -0.01  -0.02     0.00   0.00   0.01
    26   6    -0.03  -0.02   0.03    -0.02   0.00  -0.00     0.00  -0.00  -0.00
    27  15     0.00  -0.03   0.04    -0.02  -0.00  -0.01     0.00   0.00   0.00
    28   6    -0.12   0.04  -0.03    -0.02  -0.02   0.05     0.01  -0.00  -0.01
    29   6    -0.18   0.07  -0.06    -0.03  -0.02   0.06     0.02  -0.00  -0.01
    30   6    -0.16   0.04  -0.03    -0.06  -0.03   0.04     0.02   0.00  -0.01
    31   6    -0.07  -0.03   0.02    -0.08  -0.03   0.01     0.02   0.01  -0.00
    32   6    -0.01  -0.06   0.05    -0.06  -0.02  -0.00     0.01   0.01  -0.00
    33   6     0.14   0.03  -0.05     0.01  -0.01  -0.03    -0.01   0.00   0.01
    34   6     0.19   0.05  -0.08     0.01  -0.02  -0.05    -0.01   0.01   0.02
    35   6     0.13   0.03  -0.05    -0.00  -0.02  -0.06     0.00   0.01   0.02
    36   6     0.03  -0.02   0.01    -0.03  -0.01  -0.05     0.01   0.01   0.02
    37   6    -0.02  -0.04   0.04    -0.03  -0.00  -0.03     0.01   0.00   0.01
    38   6    -0.04   0.02   0.05    -0.02  -0.08  -0.03     0.00   0.02   0.01
    39   6    -0.06   0.02   0.05    -0.01  -0.08  -0.03    -0.00   0.02   0.01
    40   6    -0.07  -0.01   0.02     0.00  -0.01  -0.00    -0.01  -0.01  -0.00
    41   6    -0.06  -0.04  -0.00     0.01   0.07   0.03    -0.01  -0.03  -0.01
    42   6    -0.04  -0.05  -0.00     0.00   0.08   0.03    -0.01  -0.03  -0.01
    43   1     0.02   0.00  -0.04    -0.02   0.02   0.02    -0.00  -0.00  -0.01
    44   1     0.03   0.04  -0.09    -0.03   0.00   0.04    -0.01   0.01  -0.01
    45   1     0.06   0.10  -0.07    -0.03  -0.03   0.03    -0.01   0.02  -0.01
    46   1     0.06   0.11  -0.01    -0.04  -0.04   0.00    -0.00   0.02   0.00
    47   1     0.07   0.01   0.02    -0.01   0.01  -0.03     0.00  -0.00   0.01
    48   1    -0.01   0.04   0.02     0.03   0.04  -0.00    -0.01  -0.01   0.00
    49   1     0.07  -0.05  -0.04    -0.01   0.06   0.01    -0.00  -0.01   0.00
    50   1     0.05  -0.05  -0.09     0.00   0.05   0.06     0.00  -0.01  -0.01
    51   1    -0.05  -0.04  -0.06     0.00  -0.01   0.10     0.02   0.01  -0.03
    52   1    -0.14  -0.04   0.02    -0.01  -0.06   0.07     0.03   0.02  -0.03
    53   1    -0.12  -0.04   0.07    -0.02  -0.05   0.01     0.02   0.01  -0.01
    54   1    -0.15   0.07  -0.05     0.01  -0.01   0.06     0.01  -0.01  -0.01
    55   1    -0.25   0.12  -0.10    -0.02  -0.03   0.09     0.02  -0.01  -0.01
    56   1    -0.21   0.06  -0.06    -0.07  -0.03   0.06     0.02  -0.00  -0.01
    57   1    -0.05  -0.06   0.04    -0.10  -0.03  -0.00     0.02   0.01  -0.00
    58   1     0.05  -0.10   0.08    -0.07  -0.02  -0.03     0.01   0.01  -0.00
    59   1     0.19   0.05  -0.07     0.02  -0.02  -0.03    -0.02   0.00   0.01
    60   1     0.27   0.09  -0.12     0.03  -0.03  -0.06    -0.02   0.01   0.02
    61   1     0.17   0.05  -0.07     0.00  -0.02  -0.08     0.00   0.01   0.03
    62   1    -0.01  -0.04   0.04    -0.04  -0.01  -0.06     0.02   0.01   0.02
    63   1    -0.10  -0.07   0.09    -0.05   0.00  -0.02     0.02   0.00   0.00
    64   1    -0.03   0.04   0.08    -0.04  -0.13  -0.06     0.01   0.04   0.02
    65   1    -0.06   0.05   0.07    -0.02  -0.15  -0.05    -0.00   0.04   0.01
    66   1    -0.08  -0.00   0.02     0.01  -0.01   0.00    -0.01  -0.01  -0.00
    67   1    -0.07  -0.06  -0.03     0.02   0.13   0.05    -0.01  -0.05  -0.02
    68   1    -0.03  -0.07  -0.02     0.01   0.13   0.05    -0.01  -0.04  -0.02
    69   1     0.05   0.07   0.03    -0.04  -0.01  -0.02     0.00   0.01   0.01
    70   6     0.02   0.02  -0.02     0.03   0.05   0.02    -0.01  -0.00  -0.00
    71   6     0.01  -0.01  -0.02     0.02   0.06   0.03    -0.01  -0.00  -0.00
    72   6     0.02   0.04   0.01     0.07   0.01  -0.00    -0.01  -0.00   0.00
    73   6     0.02  -0.03   0.00     0.06   0.03  -0.00    -0.02   0.00   0.00
    74   1     0.00  -0.02  -0.04    -0.01   0.08   0.05    -0.00  -0.01  -0.00
    75   6     0.03   0.02   0.03     0.11  -0.02  -0.03    -0.02   0.01   0.01
    76   1     0.02   0.07   0.01     0.07   0.00  -0.00    -0.02   0.00   0.00
    77   6     0.03  -0.02   0.03     0.12  -0.02  -0.03    -0.02   0.01   0.00
    78   1     0.02  -0.06  -0.00     0.07   0.03   0.00    -0.02   0.00   0.00
    79   1     0.04   0.03   0.05     0.15  -0.05  -0.05    -0.03   0.01   0.01
    80   6     0.04  -0.04   0.05     0.21  -0.08  -0.08    -0.01  -0.01   0.01
    81   1     0.06  -0.08   0.11     0.36  -0.24   0.19     0.11  -0.37   0.46
    82   1     0.06  -0.07  -0.00     0.38  -0.16  -0.37     0.30  -0.06  -0.46
    83   1     0.01   0.00   0.07    -0.00   0.08  -0.07    -0.41   0.36   0.06
                     10                     11                     12
                      A                      A                      A
 Frequencies --     45.0024                47.7829                49.9131
 Red. masses --      4.2194                 4.8979                 4.0011
 Frc consts  --      0.0050                 0.0066                 0.0059
 IR Inten    --      0.3116                 0.3151                 0.1649
  Atom  AN      X      Y      Z        X      Y      Z        X      Y      Z
     1   6     0.03  -0.01  -0.01    -0.00  -0.01   0.03    -0.02  -0.01   0.00
     2   6     0.03  -0.00  -0.02    -0.02  -0.02   0.06    -0.05  -0.01   0.03
     3   6     0.04   0.01  -0.02    -0.06  -0.04   0.06    -0.08  -0.01   0.03
     4   6     0.04   0.01  -0.01    -0.08  -0.04   0.03    -0.08  -0.02   0.01
     5   6     0.03   0.00  -0.00    -0.06  -0.03   0.00    -0.06  -0.02  -0.01
     6   6     0.03  -0.00  -0.00    -0.02  -0.01   0.00    -0.02  -0.01  -0.01
     7   6     0.02  -0.00   0.01    -0.02   0.01  -0.02    -0.01  -0.01  -0.03
     8   8    -0.01  -0.03  -0.01    -0.01  -0.08   0.03     0.02  -0.01  -0.00
     9   8    -0.00  -0.03  -0.00    -0.05  -0.01   0.06     0.00   0.01   0.00
    10  16    -0.00  -0.03  -0.00    -0.02  -0.04   0.02     0.01   0.00  -0.01
    11   7     0.00  -0.02   0.01    -0.01  -0.00  -0.01     0.01   0.00  -0.02
    12   6     0.01   0.01   0.04    -0.01   0.02  -0.05    -0.04  -0.01   0.03
    13   6    -0.03  -0.01   0.07    -0.05   0.01  -0.05    -0.03  -0.00   0.04
    14   6    -0.08  -0.04   0.10    -0.11   0.01  -0.03     0.03   0.00   0.02
    15   6    -0.07  -0.04   0.09    -0.13   0.01  -0.01     0.07   0.00  -0.02
    16   6    -0.03  -0.02   0.06    -0.10   0.02   0.00     0.06   0.00  -0.03
    17   8     0.06   0.03  -0.01     0.01   0.02  -0.01    -0.05  -0.01  -0.01
    18   6     0.01   0.00   0.03    -0.04   0.02  -0.02     0.00  -0.00  -0.01
    19   6     0.04   0.02   0.01    -0.01   0.03  -0.01    -0.02  -0.01  -0.02
    20   8     0.03   0.02   0.03    -0.01   0.05   0.01    -0.01  -0.02  -0.04
    21   6     0.02   0.00   0.01    -0.01   0.03  -0.02    -0.01  -0.01  -0.03
    22   7     0.01  -0.01  -0.01    -0.01   0.01  -0.04    -0.00   0.01  -0.00
    23   6     0.01   0.00  -0.01     0.00   0.02   0.01     0.01   0.01  -0.01
    24   7     0.01  -0.01  -0.02    -0.01   0.02  -0.02    -0.00   0.01   0.01
    25   6     0.00  -0.02  -0.03     0.00   0.03   0.01    -0.01   0.01   0.01
    26   6     0.03   0.02  -0.00     0.04  -0.00   0.01     0.00   0.00   0.00
    27  15     0.01  -0.00  -0.01    -0.00   0.02   0.01    -0.00   0.01   0.00
    28   6    -0.05   0.05  -0.06     0.02   0.00   0.02    -0.13   0.10  -0.12
    29   6    -0.08   0.06  -0.07     0.04  -0.01   0.03    -0.11   0.10  -0.11
    30   6    -0.04   0.04  -0.05     0.05  -0.01   0.03     0.07  -0.01   0.02
    31   6     0.02  -0.01  -0.00     0.03   0.01   0.02     0.20  -0.10   0.13
    32   6     0.04  -0.02   0.01     0.00   0.02   0.01     0.17  -0.08   0.12
    33   6     0.01  -0.06  -0.03     0.14   0.09  -0.07     0.00   0.01   0.01
    34   6    -0.02  -0.09  -0.05     0.20   0.12  -0.10    -0.01   0.00   0.02
    35   6    -0.05  -0.08  -0.07     0.12   0.08  -0.06    -0.04  -0.01   0.03
    36   6    -0.06  -0.04  -0.07    -0.02   0.01   0.02    -0.05  -0.01   0.03
    37   6    -0.03  -0.01  -0.05    -0.07  -0.01   0.05    -0.03  -0.00   0.03
    38   6     0.03  -0.07  -0.04     0.08   0.00  -0.02     0.01   0.03   0.01
    39   6     0.06  -0.02  -0.02     0.13  -0.04  -0.02     0.01   0.03   0.01
    40   6     0.09   0.11   0.04     0.14  -0.09   0.02     0.01   0.01   0.01
    41   6     0.09   0.19   0.07     0.10  -0.09   0.06     0.00  -0.02   0.00
    42   6     0.06   0.14   0.05     0.05  -0.05   0.06    -0.00  -0.02   0.00
    43   1     0.02  -0.01  -0.01     0.02   0.00   0.03     0.00  -0.01   0.00
    44   1     0.03  -0.00  -0.03    -0.01  -0.02   0.08    -0.04  -0.01   0.04
    45   1     0.04   0.01  -0.02    -0.08  -0.05   0.08    -0.10  -0.01   0.05
    46   1     0.04   0.01  -0.01    -0.10  -0.06   0.03    -0.11  -0.02   0.02
    47   1     0.01   0.00   0.02    -0.04   0.01  -0.02    -0.01  -0.01  -0.04
    48   1    -0.00  -0.03   0.00     0.02  -0.00  -0.01     0.02   0.01  -0.02
    49   1     0.04   0.03   0.01     0.04   0.02  -0.06    -0.08  -0.01   0.04
    50   1    -0.03  -0.00   0.07    -0.02   0.00  -0.08    -0.06  -0.01   0.07
    51   1    -0.11  -0.05   0.13    -0.13  -0.00  -0.04     0.04   0.00   0.03
    52   1    -0.11  -0.06   0.12    -0.18   0.01   0.01     0.12   0.01  -0.03
    53   1    -0.03  -0.03   0.05    -0.12   0.03   0.03     0.09   0.01  -0.06
    54   1    -0.08   0.07  -0.08     0.02  -0.00   0.02    -0.26   0.18  -0.21
    55   1    -0.13   0.10  -0.11     0.06  -0.02   0.04    -0.22   0.17  -0.20
    56   1    -0.06   0.05  -0.06     0.06  -0.02   0.04     0.09  -0.02   0.03
    57   1     0.04  -0.03   0.02     0.03   0.01   0.02     0.33  -0.18   0.23
    58   1     0.08  -0.05   0.04    -0.01   0.03   0.00     0.25  -0.14   0.19
    59   1     0.03  -0.06  -0.02     0.21   0.12  -0.11     0.02   0.02  -0.00
    60   1    -0.02  -0.12  -0.05     0.31   0.17  -0.17    -0.00   0.01   0.01
    61   1    -0.08  -0.10  -0.09     0.16   0.10  -0.08    -0.05  -0.01   0.04
    62   1    -0.08  -0.03  -0.09    -0.08  -0.02   0.06    -0.07  -0.02   0.04
    63   1    -0.03   0.02  -0.06    -0.18  -0.06   0.12    -0.04  -0.00   0.03
    64   1     0.01  -0.16  -0.08     0.07   0.04  -0.06     0.01   0.06   0.01
[...]
 Vib (Bot)   47  0.358721D+00         -0.445243         -1.025210
 Vib (Bot)   48  0.357148D+00         -0.447152         -1.029606
 Vib (Bot)   49  0.353275D+00         -0.451887         -1.040509
 Vib (Bot)   50  0.349877D+00         -0.456085         -1.050174
 Vib (Bot)   51  0.345966D+00         -0.460966         -1.061414
 Vib (Bot)   52  0.342114D+00         -0.465829         -1.072612
 Vib (Bot)   53  0.311745D+00         -0.506201         -1.165571
 Vib (Bot)   54  0.299477D+00         -0.523637         -1.205718
 Vib (Bot)   55  0.294221D+00         -0.531326         -1.223423
 Vib (Bot)   56  0.286437D+00         -0.542971         -1.250238
 Vib (Bot)   57  0.278960D+00         -0.554457         -1.276685
 Vib (Bot)   58  0.270439D+00         -0.567930         -1.307707
 Vib (Bot)   59  0.246359D+00         -0.608432         -1.400967
 Vib (Bot)   60  0.239909D+00         -0.619954         -1.427496
 Vib (V=0)                            18.110532         41.701040
 Vib (V=0)    1  0.158795D+02          1.200837          2.765029
 Vib (V=0)    2  0.137974D+02          1.139797          2.624480
 Vib (V=0)    3  0.118484D+02          1.073661          2.472196
 Vib (V=0)    4  0.867797D+01          0.938418          2.160787
 Vib (V=0)    5  0.650519D+01          0.813260          1.872600
 Vib (V=0)    6  0.541387D+01          0.733508          1.688963
 Vib (V=0)    7  0.504266D+01          0.702660          1.617934
 Vib (V=0)    8  0.482123D+01          0.683158          1.573030
 Vib (V=0)    9  0.458468D+01          0.661309          1.522720
 Vib (V=0)   10  0.434944D+01          0.638433          1.470047
 Vib (V=0)   11  0.418705D+01          0.621908          1.431997
 Vib (V=0)   12  0.376847D+01          0.576165          1.326670
 Vib (V=0)   13  0.371479D+01          0.569934          1.312321
 Vib (V=0)   14  0.339016D+01          0.530220          1.220876
 Vib (V=0)   15  0.324367D+01          0.511036          1.176705
 Vib (V=0)   16  0.293079D+01          0.466984          1.075271
 Vib (V=0)   17  0.279978D+01          0.447123          1.029540
 Vib (V=0)   18  0.269993D+01          0.431352          0.993226
 Vib (V=0)   19  0.241908D+01          0.383650          0.883386
 Vib (V=0)   20  0.236106D+01          0.373108          0.859112
 Vib (V=0)   21  0.228158D+01          0.358236          0.824869
 Vib (V=0)   22  0.190159D+01          0.279116          0.642688
 Vib (V=0)   23  0.178610D+01          0.251905          0.580032
 Vib (V=0)   24  0.167338D+01          0.223596          0.514848
 Vib (V=0)   25  0.162761D+01          0.211550          0.487112
 Vib (V=0)   26  0.159843D+01          0.203693          0.469020
 Vib (V=0)   27  0.152524D+01          0.183338          0.422152
 Vib (V=0)   28  0.146806D+01          0.166745          0.383945
 Vib (V=0)   29  0.141846D+01          0.151817          0.349572
 Vib (V=0)   30  0.140936D+01          0.149023          0.343139
 Vib (V=0)   31  0.136344D+01          0.134635          0.310008
 Vib (V=0)   32  0.133943D+01          0.126921          0.292245
 Vib (V=0)   33  0.133415D+01          0.125206          0.288298
 Vib (V=0)   34  0.132212D+01          0.121272          0.279239
 Vib (V=0)   35  0.129226D+01          0.111348          0.256389
 Vib (V=0)   36  0.128503D+01          0.108912          0.250779
 Vib (V=0)   37  0.127481D+01          0.105445          0.242796
 Vib (V=0)   38  0.123173D+01          0.090515          0.208418
 Vib (V=0)   39  0.121522D+01          0.084654          0.194923
 Vib (V=0)   40  0.119262D+01          0.076503          0.176155
 Vib (V=0)   41  0.118672D+01          0.074349          0.171196
 Vib (V=0)   42  0.115864D+01          0.063948          0.147245
 Vib (V=0)   43  0.114024D+01          0.056997          0.131241
 Vib (V=0)   44  0.113067D+01          0.053336          0.122811
 Vib (V=0)   45  0.112038D+01          0.049366          0.113670
 Vib (V=0)   46  0.111740D+01          0.048209          0.111005
 Vib (V=0)   47  0.111537D+01          0.047419          0.109187
 Vib (V=0)   48  0.111445D+01          0.047062          0.108365
 Vib (V=0)   49  0.111221D+01          0.046187          0.106350
 Vib (V=0)   50  0.111026D+01          0.045424          0.104592
 Vib (V=0)   51  0.110802D+01          0.044549          0.102578
 Vib (V=0)   52  0.110584D+01          0.043692          0.100605
 Vib (V=0)   53  0.108922D+01          0.037117          0.085465
 Vib (V=0)   54  0.108283D+01          0.034559          0.079574
 Vib (V=0)   55  0.108014D+01          0.033481          0.077094
 Vib (V=0)   56  0.107623D+01          0.031907          0.073468
 Vib (V=0)   57  0.107255D+01          0.030419          0.070043
 Vib (V=0)   58  0.106845D+01          0.028755          0.066211
 Vib (V=0)   59  0.105740D+01          0.024239          0.055811
 Vib (V=0)   60  0.105458D+01          0.023079          0.053140
 Electronic      0.100000D+01          0.000000          0.000000
 Translational   0.513686D+09          8.710698         20.057123
 Rotational      0.626787D+08          7.797120         17.953533
 ***** Axes restored to original set *****
 -------------------------------------------------------------------
 Center     Atomic                   Forces (Hartrees/Bohr)
 Number     Number              X              Y              Z
 -------------------------------------------------------------------
      1        6           0.000000151   -0.000000155   -0.000000117
      2        6           0.000000128   -0.000000202    0.000000021
      3        6           0.000000182   -0.000000634    0.000000008
      4        6           0.000000246   -0.000000683   -0.000000329
      5        6           0.000000246   -0.000000450   -0.000000576
      6        6           0.000000021   -0.000000259   -0.000000046
      7        6          -0.000000001   -0.000000001   -0.000000392
      8        8          -0.000000204    0.000000797   -0.000000810
      9        8           0.000000247   -0.000000110   -0.000000803
     10       16          -0.000000343    0.000000870   -0.000001083
     11        7          -0.000000071    0.000000369   -0.000000597
     12        6          -0.000000127    0.000000400    0.000000840
     13        6          -0.000000194    0.000000435    0.000001154
     14        6          -0.000000145    0.000000160    0.000001330
     15        6          -0.000000063   -0.000000034    0.000001118
     16        6          -0.000000048   -0.000000090    0.000000636
     17        8          -0.000000268    0.000000753   -0.000000120
     18        6          -0.000000119    0.000000278    0.000000567
     19        6          -0.000000205    0.000000415    0.000000436
     20        8          -0.000000358    0.000000171    0.000000092
     21        6           0.000000021    0.000000037   -0.000000268
     22        7           0.000000243    0.000000016   -0.000000257
     23        6           0.000000037    0.000000214   -0.000000382
     24        7          -0.000000019    0.000000079    0.000000281
     25        6          -0.000000043   -0.000000157    0.000000332
     26        6           0.000000090   -0.000000491   -0.000000062
     27       15          -0.000000045   -0.000000136    0.000000129
     28        6           0.000000006   -0.000000018   -0.000000481
     29        6          -0.000000105    0.000000313   -0.000000597
     30        6          -0.000000048    0.000000532   -0.000000856
     31        6          -0.000000248    0.000000485   -0.000000731
     32        6          -0.000000013    0.000000415   -0.000000304
     33        6          -0.000000207    0.000000343    0.000000634
     34        6          -0.000000220    0.000000487    0.000000832
     35        6          -0.000000223    0.000000251    0.000001063
     36        6          -0.000000074   -0.000000013    0.000001125
     37        6           0.000000003   -0.000000109    0.000000746
     38        6           0.000000299   -0.000000698   -0.000000205
     39        6           0.000000395   -0.000001025   -0.000000243
     40        6           0.000000362   -0.000001137   -0.000000020
     41        6           0.000000288   -0.000000965    0.000000175
     42        6           0.000000318   -0.000000664    0.000000047
     43        1          -0.000000002    0.000000228    0.000000043
     44        1           0.000000034   -0.000000138    0.000000297
     45        1           0.000000255   -0.000000735    0.000000094
     46        1           0.000000399   -0.000000913   -0.000000408
     47        1           0.000000043   -0.000000046   -0.000000725
     48        1           0.000000095    0.000000517   -0.000000295
     49        1          -0.000000309    0.000000709    0.000000778
     50        1          -0.000000302    0.000000586    0.000001385
     51        1          -0.000000157    0.000000090    0.000001587
     52        1           0.000000003   -0.000000269    0.000001178
     53        1           0.000000032   -0.000000120    0.000000574
     54        1           0.000000022   -0.000000202   -0.000000369
     55        1           0.000000033    0.000000103   -0.000000818
     56        1          -0.000000145    0.000000663   -0.000001045
     57        1          -0.000000206    0.000000842   -0.000000744
     58        1          -0.000000183    0.000000602   -0.000000280
     59        1          -0.000000164    0.000000498    0.000000243
     60        1          -0.000000256    0.000000662    0.000000798
     61        1          -0.000000181    0.000000338    0.000001318
     62        1          -0.000000047   -0.000000175    0.000001289
     63        1           0.000000043   -0.000000256    0.000000669
     64        1           0.000000143   -0.000000624   -0.000000258
     65        1           0.000000425   -0.000001180   -0.000000387
     66        1           0.000000464   -0.000001446   -0.000000120
     67        1           0.000000360   -0.000001032    0.000000204
     68        1           0.000000204   -0.000000388    0.000000301
     69        1           0.000000212   -0.000000558   -0.000000633
     70        6          -0.000000028    0.000000404   -0.000000789
     71        6          -0.000000117    0.000000076   -0.000000581
     72        6          -0.000000371    0.000000272   -0.000000395
     73        6           0.000000124   -0.000000417   -0.000000937
     74        1           0.000000053    0.000000102   -0.000001016
     75        6           0.000000013    0.000000677   -0.000000130
     76        1          -0.000000240    0.000000740   -0.000000580
     77        6          -0.000000104    0.000000218   -0.000000468
     78        1           0.000000069   -0.000000175   -0.000000681
     79        1          -0.000000246    0.000000557   -0.000000259
     80        6          -0.000000108    0.000000124   -0.000000257
     81        1           0.000000125   -0.000000091   -0.000000208
     82        1           0.000000091   -0.000000107   -0.000000363
     83        1           0.000000029    0.000000075   -0.000000296
 -------------------------------------------------------------------
 Cartesian Forces:  Max     0.000001587 RMS     0.000000496
 FormGI is forming the generalized inverse of G from B-inverse, IUseBI=4.

 ----------------------------------------------------------------------

 Electric dipole moment (input orientation):
 (Debye = 10**-18 statcoulomb cm , SI units = C m)
                  (au)            (Debye)         (10**-30 SI)
   Tot        0.478009D+01      0.121498D+02      0.405273D+02
   x         -0.263963D+01     -0.670928D+01     -0.223797D+02
   y          0.248750D+01      0.632260D+01      0.210899D+02
   z          0.311351D+01      0.791375D+01      0.263974D+02

 Dipole polarizability, Alpha (input orientation).
 (esu units = cm**3 , SI units = C**2 m**2 J**-1)
 Alpha(0;0):
               (au)            (10**-24 esu)      (10**-40 SI)
   iso        0.583137D+03      0.864119D+02      0.961462D+02
   aniso      0.112713D+03      0.167024D+02      0.185839D+02
   xx         0.560044D+03      0.829899D+02      0.923387D+02
   yx         0.348978D+02      0.517132D+01      0.575387D+01
   yy         0.583341D+03      0.864422D+02      0.961799D+02
   zx         0.498096D+02      0.738102D+01      0.821250D+01
   zy         0.270133D+01      0.400296D+00      0.445389D+00
   zz         0.606025D+03      0.898037D+02      0.999201D+02

 ----------------------------------------------------------------------

 Dipole orientation:
     6          6.07565794          2.28557852         -1.41593277
     6          8.38095484          2.90768226         -0.32335030
     6          9.97919735          1.01217661          0.56773459
     6          9.25745527         -1.50750769          0.36097447
     6          6.95238938         -2.12898135         -0.74871585
     6          5.35381217         -0.24210646         -1.65306592
     6          2.84259750         -0.97756300         -2.86416573
     8          2.76032995          0.78539800         -9.93875733
     8          4.46737750         -3.16541898         -7.82374956
    16          4.05284342         -0.44230039         -7.83951281
     7          2.30602767          0.18922629         -5.32207738
     6         -4.11969032          6.21530867          2.61641885
     6         -4.05953676          7.87566776          4.65508368
     6         -2.02172528          7.84348342          6.31714175
     6         -0.03928009          6.14788626          5.93256437
     6         -0.09648248          4.49271516          3.89441563
     8         -4.05695351          2.83184172         -1.50857335
     6         -2.14402279          4.52017064          2.23191345
     6         -2.32204011          2.76620789          0.01041737
     8          0.17660587          2.18006324         -0.96391351
     6          0.68641486         -0.30916250         -1.15249408
     7         -0.52366858         -1.92067676          0.16935541
     6         -6.46316182         -3.75268564          0.54567274
     7         -2.18542371         -0.59181373          1.72286164
     6         -6.40668715          0.13822314          4.54660828
     6         -3.58414818         -4.54639227          5.17692822
    15         -4.53709191         -2.17443706          2.89269681
     6         -7.81424333         -5.95762372          1.09310633
     6         -9.30058732         -7.07206559         -0.76563342
     6         -9.43043437         -5.99913836         -3.16738607
     6         -8.07648371         -3.80958639         -3.71652107
     6         -6.58609197         -2.67852125         -1.86835677
     6         -8.73977630          0.93065169          3.60767545
     6        -10.09066355          2.79609318          4.87951244
     6         -9.11760170          3.85738602          7.07989921
     6         -6.78570170          3.06793719          8.01716253
     6         -5.42608812          1.21305793          6.75581651
     6         -1.26602626         -5.77970543          4.86753214
     6         -0.53751395         -7.63406325          6.58291446
     6         -2.11035458         -8.26580356          8.59751806
     6         -4.41814335         -7.03875681          8.90950224
     6         -5.15707413         -5.17653744          7.20664711
     1          4.84902635          3.77374876         -2.11569814
     1          8.93701657          4.87723203         -0.17594899
     1         11.78299960          1.50187609          1.41487209
     1         10.49268947         -2.99549662          1.04705019
     1          2.79101616         -3.02336852         -3.12564941
     1          1.72177338          2.01658374         -5.25216904
     1         -5.70592562          6.19862045          1.31851791
     1         -5.61322634          9.18270308          4.95245805
     1         -1.97374935          9.13354417          7.91294952
     1          1.55409551          6.11880488          7.22574862
     1          1.43522727          3.16332925          3.59292172
     1         -7.70174919         -6.81476744          2.95393479
     1        -10.34775250         -8.78403772         -0.34231231
     1        -10.58491289         -6.87920484         -4.61744657
     1         -8.17156601         -2.98240085         -5.59097952
     1         -5.53239405         -0.96202842         -2.28150506
     1         -9.50025943          0.10666737          1.89021203
     1        -11.90397987          3.41497311          4.14838561
     1        -10.17551287          5.31159265          8.06758845
     1         -6.01663717          3.91354396          9.71908298
     1         -3.60026834          0.61464145          7.47470959
     1         -0.04489740         -5.27855102          3.29697193
     1          1.26426613         -8.58510755          6.34656757
     1         -1.53341672         -9.71321151          9.93209568
     1         -5.64041650         -7.52182173         10.48396792
     1         -6.94743482         -4.20782437          7.47128331
     1          6.40287899         -4.09992621         -0.93168903
     6          7.02614117          1.06229998         -7.44509738
     6          9.08347791         -0.33312481         -6.58922482
     6          7.20356033          3.66086160         -7.81295582
     6         11.33355901          0.90710607         -6.06548647
     1          8.90818078         -2.35463994         -6.31204060
     6          9.47016543          4.87168770         -7.27597014
     1          5.59435682          4.72576564         -8.50808003
     6         11.55250902          3.52216541         -6.37029147
     1         12.93894922         -0.17049812         -5.37635182
     1          9.61796807          6.90023089         -7.55401793
     6         13.96801891          4.85132574         -5.66582303
     1         14.08823482          5.06690918         -3.60824158
     1         15.62462079          3.77204585         -6.27132722
     1         14.07280643          6.73600219         -6.50579565

 Electric dipole moment (dipole orientation):
 (Debye = 10**-18 statcoulomb cm , SI units = C m)
                  (au)            (Debye)         (10**-30 SI)
   Tot        0.478009D+01      0.121498D+02      0.405273D+02
   x          0.000000D+00      0.000000D+00      0.000000D+00
   y          0.000000D+00      0.000000D+00      0.000000D+00
   z          0.478009D+01      0.121498D+02      0.405273D+02

 Dipole polarizability, Alpha (dipole orientation).
 (esu units = cm**3 , SI units = C**2 m**2 J**-1)
 Alpha(0;0):
               (au)            (10**-24 esu)      (10**-40 SI)
   iso        0.583137D+03      0.864119D+02      0.961462D+02
   aniso      0.112713D+03      0.167024D+02      0.185839D+02
   xx         0.630046D+03      0.933631D+02      0.103880D+03
   yx        -0.324889D+00     -0.481435D-01     -0.535669D-01
   yy         0.587561D+03      0.870675D+02      0.968756D+02
   zx         0.424478D+02      0.629011D+01      0.699869D+01
   zy         0.229787D+01      0.340510D+00      0.378868D+00
   zz         0.531804D+03      0.788052D+02      0.876826D+02

 ----------------------------------------------------------------------

 This type of calculation cannot be archived.


 ASKING FOR EFFICIENCY AND ADAPTABILITY IN THE SAME PROGRAM IS LIKE
 ASKING FOR A BEAUTIFUL AND MODEST WIFE ...
 WE'LL PROBABLY HAVE TO SETTLE FOR ONE OR THE OTHER.

             -- THE PSYCHOLOGY OF COMPUTER PROGRAMMING
                GERALD M. WEINBERG
 Job cpu time:       0 days  0 hours  0 minutes  2.7 seconds.
 Elapsed time:       0 days  0 hours  0 minutes  0.7 seconds.
 File lengths (MBytes):  RWF=     11 Int=      0 D2E=      0 Chk=     15 Scr=      1
 Normal termination of Gaussian 16 at Sat Apr  4 18:50:38 2020.
