 Entering Gaussian System, Link 0=g16
 Input=benzoic_acid.gjf
 Output=benzoic_acid.log
 Initial command:
 /apps/cent7/gaussian/g16-A.03/g16-haswell/g16/l1.exe "/scratch/brown/finej/0051_imine_mechanism/ts_631gd/other_complete/Gau-40599.inp" -scrdir="/scratch/brown/finej/0051_imine_mechanism/ts_631gd/other_complete/"
 Entering Link 1 = /apps/cent7/gaussian/g16-A.03/g16-haswell/g16/l1.exe PID=     40600.
  
 Copyright (c) 1988,1990,1992,1993,1995,1998,2003,2009,2016,
            Gaussian, Inc.  All Rights Reserved.
  
 This is part of the Gaussian(R) 16 program.  It is based on
 the Gaussian(R) 09 system (copyright 2009, Gaussian, Inc.),
 the Gaussian(R) 03 system (copyright 2003, Gaussian, Inc.),
 the Gaussian(R) 98 system (copyright 1998, Gaussian, Inc.),
 the Gaussian(R) 94 system (copyright 1995, Gaussian, Inc.),
 the Gaussian 92(TM) system (copyright 1992, Gaussian, Inc.),
 the Gaussian 90(TM) system (copyright 1990, Gaussian, Inc.),
 the Gaussian 88(TM) system (copyright 1988, Gaussian, Inc.),
 the Gaussian 86(TM) system (copyright 1986, Carnegie Mellon
 University), and the Gaussian 82(TM) system (copyright 1983,
 Carnegie Mellon University). Gaussian is a federally registered
 trademark of Gaussian, Inc.
  
 This software contains proprietary and confidential information,
 including trade secrets, belonging to Gaussian, Inc.
  
 This software is provided under written license and may be
 used, copied, transmitted, or stored only in accord with that
 written license.
  
 The following legend is applicable only to US Government
 contracts under FAR:
  
                    RESTRICTED RIGHTS LEGEND
  
 Use, reproduction and disclosure by the US Government is
 subject to restrictions as set forth in subparagraphs (a)
 and (c) of the Commercial Computer Software - Restricted
 Rights clause in FAR 52.227-19.
  
 Gaussian, Inc.
 340 Quinnipiac St., Bldg. 40, Wallingford CT 06492
  
  
 ---------------------------------------------------------------
 Warning -- This program may not be used in any manner that
 competes with the business of Gaussian, Inc. or will provide
 assistance to any competitor of Gaussian, Inc.  The licensee
 of this program is prohibited from giving any competitor of
 Gaussian, Inc. access to this program.  By using this program,
 the user acknowledges that Gaussian, Inc. is engaged in the
 business of creating and licensing software in the field of
 computational chemistry and represents and warrants to the
 licensee that it is not a competitor of Gaussian, Inc. and that
 it will not use this program in any manner prohibited above.
 ---------------------------------------------------------------
  

 Cite this work as:
 Gaussian 16, Revision A.03,
 M. J. Frisch, G. W. Trucks, H. B. Schlegel, G. E. Scuseria, 
 M. A. Robb, J. R. Cheeseman, G. Scalmani, V. Barone, 
 G. A. Petersson, H. Nakatsuji, X. Li, M. Caricato, A. V. Marenich, 
 J. Bloino, B. G. Janesko, R. Gomperts, B. Mennucci, H. P. Hratchian, 
 J. V. Ortiz, A. F. Izmaylov, J. L. Sonnenberg, D. Williams-Young, 
 F. Ding, F. Lipparini, F. Egidi, J. Goings, B. Peng, A. Petrone, 
 T. Henderson, D. Ranasinghe, V. G. Zakrzewski, J. Gao, N. Rega, 
 G. Zheng, W. Liang, M. Hada, M. Ehara, K. Toyota, R. Fukuda, 
 J. Hasegawa, M. Ishida, T. Nakajima, Y. Honda, O. Kitao, H. Nakai, 
 T. Vreven, K. Throssell, J. A. Montgomery, Jr., J. E. Peralta, 
 F. Ogliaro, M. J. Bearpark, J. J. Heyd, E. N. Brothers, K. N. Kudin, 
 V. N. Staroverov, T. A. Keith, R. Kobayashi, J. Normand, 
 K. Raghavachari, A. P. Rendell, J. C. Burant, S. S. Iyengar, 
 J. Tomasi, M. Cossi, J. M. Millam, M. Klene, C. Adamo, R. Cammi, 
 J. W. Ochterski, R. L. Martin, K. Morokuma, O. Farkas, 
 J. B. Foresman, and D. J. Fox, Gaussian, Inc., Wallingford CT, 2016.
 
 ******************************************
 Gaussian 16:  ES64L-G16RevA.03 25-Dec-2016
                 4-Apr-2020 
 ******************************************
 %nprocshared=4
 Will use up to    4 processors via shared memory.
 %mem=1GB
 %oldchk=benzoic_acid.chk
 Copying data from "benzoic_acid.chk" to current chk file "/scratch/brown/finej/0051_imine_mechanism/ts_631gd/other_complete/Gau-40600.chk"
 IOpt=  2 FromEx=T IUOpen= 4 IOptOp= 5 NList=   0 IFRang= 0 IUIn= 4 IUOut= 2.
 ----------------------------------------------------------------------
 # freq=readfc wb97xd/6-31g(d) scrf=solvent=dichloromethane geom=check 
 temperature=263.15
 ----------------------------------------------------------------------
 1/29=2,38=1,112=263150,172=1/1;
 2/12=2,40=1/2;
 7/8=1,25=11/16;
 99/5=2/99;
 ------------
 Benzoic Acid
 ------------
 Structure from the checkpoint file:  "/scratch/brown/finej/0051_imine_mechanism/ts_631gd/other_complete/Gau-40600.chk"
 Charge =  0 Multiplicity = 1
 Redundant internal coordinates found in file.  (old form).
 C,0,0.123472075,1.7020827621,0.
 C,0,0.0038088591,0.2201931236,0.
 C,0,-1.2781612444,-0.3352412219,0.
 C,0,-1.4379787658,-1.7154712941,0.
 C,0,-0.3173764454,-2.5447626829,0.
 C,0,0.9625872532,-1.9933419427,0.
 C,0,1.1265746817,-0.6123955014,0.
 O,0,1.3961150252,2.129899592,0.
 O,0,-0.8170999892,2.4693641386,0.
 H,0,-2.1388731319,0.3251591905,0.
 H,0,-2.4345871862,-2.1452875126,0.
 H,0,-0.4417978582,-3.6234231088,0.
 H,0,1.8342866517,-2.6400041428,0.
 H,0,2.120934887,-0.180170187,0.
 H,0,1.3693651857,3.1005377761,0.
 Recover connectivity data from disk.
                           ----------------------------
                           !    Current Parameters    !
                           ! (Angstroms and Degrees)  !
 --------------------------                            --------------------------
 ! Name  Definition              Value          Derivative Info.                !
 --------------------------------------------------------------------------------
 ! R1    R(1,2)                  1.4867         estimate D2E/DX2                !
 ! R2    R(1,8)                  1.3426         estimate D2E/DX2                !
 ! R3    R(1,9)                  1.2138         estimate D2E/DX2                !
 ! R4    R(2,3)                  1.3971         estimate D2E/DX2                !
 ! R5    R(2,7)                  1.3978         estimate D2E/DX2                !
 ! R6    R(3,4)                  1.3895         estimate D2E/DX2                !
 ! R7    R(3,10)                 1.0849         estimate D2E/DX2                !
 ! R8    R(4,5)                  1.3941         estimate D2E/DX2                !
 ! R9    R(4,11)                 1.0853         estimate D2E/DX2                !
 ! R10   R(5,6)                  1.3937         estimate D2E/DX2                !
 ! R11   R(5,12)                 1.0858         estimate D2E/DX2                !
 ! R12   R(6,7)                  1.3906         estimate D2E/DX2                !
 ! R13   R(6,13)                 1.0854         estimate D2E/DX2                !
 ! R14   R(7,14)                 1.0842         estimate D2E/DX2                !
 ! R15   R(8,15)                 0.971          estimate D2E/DX2                !
 ! A1    A(2,1,8)              113.1974         estimate D2E/DX2                !
 ! A2    A(2,1,9)              124.5896         estimate D2E/DX2                !
 ! A3    A(8,1,9)              122.213          estimate D2E/DX2                !
 ! A4    A(1,2,3)              118.0421         estimate D2E/DX2                !
 ! A5    A(1,2,7)              121.9422         estimate D2E/DX2                !
 ! A6    A(3,2,7)              120.0157         estimate D2E/DX2                !
 ! A7    A(2,3,4)              120.0303         estimate D2E/DX2                !
 ! A8    A(2,3,10)             119.0765         estimate D2E/DX2                !
 ! A9    A(4,3,10)             120.8931         estimate D2E/DX2                !
 ! A10   A(3,4,5)              119.8981         estimate D2E/DX2                !
 ! A11   A(3,4,11)             119.9344         estimate D2E/DX2                !
 ! A12   A(5,4,11)             120.1675         estimate D2E/DX2                !
 ! A13   A(4,5,6)              120.1902         estimate D2E/DX2                !
 ! A14   A(4,5,12)             119.9231         estimate D2E/DX2                !
 ! A15   A(6,5,12)             119.8867         estimate D2E/DX2                !
 ! A16   A(5,6,7)              120.079          estimate D2E/DX2                !
 ! A17   A(5,6,13)             120.1236         estimate D2E/DX2                !
 ! A18   A(7,6,13)             119.7974         estimate D2E/DX2                !
 ! A19   A(2,7,6)              119.7867         estimate D2E/DX2                !
 ! A20   A(2,7,14)             119.9477         estimate D2E/DX2                !
 ! A21   A(6,7,14)             120.2656         estimate D2E/DX2                !
 ! A22   A(1,8,15)             107.0022         estimate D2E/DX2                !
 ! D1    D(8,1,2,3)            180.0            estimate D2E/DX2                !
 ! D2    D(8,1,2,7)              0.0            estimate D2E/DX2                !
 ! D3    D(9,1,2,3)              0.0            estimate D2E/DX2                !
 ! D4    D(9,1,2,7)            180.0            estimate D2E/DX2                !
 ! D5    D(2,1,8,15)           180.0            estimate D2E/DX2                !
 ! D6    D(9,1,8,15)             0.0            estimate D2E/DX2                !
 ! D7    D(1,2,3,4)            180.0            estimate D2E/DX2                !
 ! D8    D(1,2,3,10)             0.0            estimate D2E/DX2                !
 ! D9    D(7,2,3,4)              0.0            estimate D2E/DX2                !
 ! D10   D(7,2,3,10)           180.0            estimate D2E/DX2                !
 ! D11   D(1,2,7,6)            180.0            estimate D2E/DX2                !
 ! D12   D(1,2,7,14)             0.0            estimate D2E/DX2                !
 ! D13   D(3,2,7,6)              0.0            estimate D2E/DX2                !
 ! D14   D(3,2,7,14)           180.0            estimate D2E/DX2                !
 ! D15   D(2,3,4,5)              0.0            estimate D2E/DX2                !
 ! D16   D(2,3,4,11)           180.0            estimate D2E/DX2                !
 ! D17   D(10,3,4,5)           180.0            estimate D2E/DX2                !
 ! D18   D(10,3,4,11)            0.0            estimate D2E/DX2                !
 ! D19   D(3,4,5,6)              0.0            estimate D2E/DX2                !
 ! D20   D(3,4,5,12)           180.0            estimate D2E/DX2                !
 ! D21   D(11,4,5,6)           180.0            estimate D2E/DX2                !
 ! D22   D(11,4,5,12)            0.0            estimate D2E/DX2                !
 ! D23   D(4,5,6,7)              0.0            estimate D2E/DX2                !
 ! D24   D(4,5,6,13)           180.0            estimate D2E/DX2                !
 ! D25   D(12,5,6,7)           180.0            estimate D2E/DX2                !
 ! D26   D(12,5,6,13)            0.0            estimate D2E/DX2                !
 ! D27   D(5,6,7,2)              0.0            estimate D2E/DX2                !
 ! D28   D(5,6,7,14)           180.0            estimate D2E/DX2                !
 ! D29   D(13,6,7,2)           180.0            estimate D2E/DX2                !
 ! D30   D(13,6,7,14)            0.0            estimate D2E/DX2                !
 --------------------------------------------------------------------------------
                          Input orientation:                          
 ---------------------------------------------------------------------
 Center     Atomic      Atomic             Coordinates (Angstroms)
 Number     Number       Type             X           Y           Z
 ---------------------------------------------------------------------
      1          6           0        0.123472    1.702083    0.000000
      2          6           0        0.003809    0.220193    0.000000
      3          6           0       -1.278161   -0.335241   -0.000000
      4          6           0       -1.437979   -1.715471   -0.000000
      5          6           0       -0.317376   -2.544763   -0.000000
      6          6           0        0.962587   -1.993342    0.000000
      7          6           0        1.126575   -0.612396    0.000000
      8          8           0        1.396115    2.129900    0.000000
      9          8           0       -0.817100    2.469364   -0.000000
     10          1           0       -2.138873    0.325159   -0.000000
     11          1           0       -2.434587   -2.145288   -0.000000
     12          1           0       -0.441798   -3.623423   -0.000000
     13          1           0        1.834287   -2.640004    0.000000
     14          1           0        2.120935   -0.180170    0.000000
     15          1           0        1.369365    3.100538    0.000000
 ---------------------------------------------------------------------
                    Distance matrix (angstroms):
                    1          2          3          4          5
     1  C    0.000000
     2  C    1.486713   0.000000
     3  C    2.472906   1.397124   0.000000
     4  C    3.757367   2.413617   1.389452   0.000000
     5  C    4.269666   2.783548   2.409376   1.394085   0.000000
     6  C    3.789496   2.412259   2.787517   2.416595   1.393690
     7  C    2.522504   1.397786   2.420655   2.791722   2.412268
     8  O    1.342627   2.363365   3.637124   4.776920   4.978807
     9  O    1.213835   2.394298   2.842251   4.230643   5.038967
    10  H    2.648419   2.145251   1.084875   2.157644   3.399162
    11  H    4.620165   3.397245   2.147927   1.085343   2.154568
    12  H    5.355422   3.869361   3.392881   2.152361   1.085813
    13  H    4.666970   3.395788   3.872888   3.400365   2.153770
    14  H    2.744583   2.154649   3.402632   3.875954   3.396566
    15  H    1.872946   3.187653   4.337508   5.574507   5.891902
                    6          7          8          9         10
     6  C    0.000000
     7  C    1.390649   0.000000
     8  O    4.145970   2.755510   0.000000
     9  O    4.804480   3.643503   2.239097   0.000000
    10  H    3.872274   3.397375   3.969034   2.518869   0.000000
    11  H    3.400571   3.877065   5.740340   4.889916   2.488082
    12  H    2.151618   3.395008   6.039755   6.104335   4.297833
    13  H    1.085372   2.147569   4.789987   5.756344   4.957640
    14  H    2.151595   1.084237   2.421113   3.956271   4.289676
    15  H    5.110096   3.720863   0.971007   2.275744   4.473306
                   11         12         13         14         15
    11  H    0.000000
    12  H    2.481148   0.000000
    13  H    4.297444   2.479450   0.000000
    14  H    4.961297   4.292271   2.476479   0.000000
    15  H    6.479872   6.963617   5.759338   3.365695   0.000000
 Stoichiometry    C7H6O2
 Framework group  CS[SG(C7H6O2)]
 Deg. of freedom    27
 Full point group                 CS      NOp   2
 Largest Abelian subgroup         CS      NOp   2
 Largest concise Abelian subgroup C1      NOp   1
                         Standard orientation:                         
 ---------------------------------------------------------------------
 Center     Atomic      Atomic             Coordinates (Angstroms)
 Number     Number       Type             X           Y           Z
 ---------------------------------------------------------------------
      1          6           0       -0.098186    1.704351    0.000000
      2          6           0       -0.000000    0.220883    0.000000
      3          6           0        1.273790   -0.353061    0.000000
      4          6           0        1.413599   -1.735461    0.000000
      5          6           0        0.281103   -2.548434    0.000000
      6          6           0       -0.990740   -1.978532    0.000000
      7          6           0       -1.134708   -0.595355    0.000000
      8          8           0       -1.364499    2.150556    0.000000
      9          8           0        0.853401    2.457928    0.000000
     10          1           0        2.143978    0.294803    0.000000
     11          1           0        2.403878   -2.179668    0.000000
     12          1           0        0.389887   -3.628784    0.000000
     13          1           0       -1.871714   -2.612500    0.000000
     14          1           0       -2.122703   -0.148772    0.000000
     15          1           0       -1.323693    3.120705    0.000000
 ---------------------------------------------------------------------
 Rotational constants (GHZ):           3.8909995           1.2289299           0.9339515
 Electric field and nuclear coordinate derivatives read from checkpoint file.
 Rotating derivatives to standard orientation.
 Full mass-weighted force constant matrix:
 Low frequencies ---   -7.9329   -1.3302    0.0011    0.0012    0.0012   15.2368
 Low frequencies ---   59.1068  161.2270  222.3428
 Diagonal vibrational polarizability:
       11.6126265      16.4408972      30.8387184
 Harmonic frequencies (cm**-1), IR intensities (KM/Mole), Raman scattering
 activities (A**4/AMU), depolarization ratios for plane and unpolarized
 incident light, reduced masses (AMU), force constants (mDyne/A),
 and normal coordinates:
                      1                      2                      3
                     A"                     A"                     A'
 Frequencies --     59.1040               161.2262               222.3413
 Red. masses --      7.0230                 4.5101                 5.5683
 Frc consts  --      0.0145                 0.0691                 0.1622
 IR Inten    --      1.5001                 0.9913                 2.3485
  Atom  AN      X      Y      Z        X      Y      Z        X      Y      Z
     1   6    -0.00   0.00  -0.03     0.00  -0.00   0.03    -0.05  -0.02  -0.00
     2   6     0.00   0.00  -0.01    -0.00  -0.00   0.29    -0.21  -0.03  -0.00
     3   6     0.00   0.00   0.18    -0.00   0.00   0.23    -0.16   0.11  -0.00
     4   6    -0.00   0.00   0.20     0.00   0.00  -0.05     0.04   0.14   0.00
     5   6     0.00  -0.00   0.01     0.00   0.00  -0.26     0.14   0.01   0.00
     6   6     0.00   0.00  -0.20    -0.00  -0.00  -0.05     0.07  -0.14  -0.00
     7   6     0.00   0.00  -0.19    -0.00  -0.00   0.23    -0.13  -0.15  -0.00
     8   8    -0.00   0.00   0.39     0.00  -0.00  -0.12     0.07   0.28   0.00
     9   8    -0.00  -0.00  -0.38     0.00  -0.00  -0.16     0.14  -0.25   0.00
    10   1     0.00  -0.00   0.31    -0.00   0.00   0.30    -0.25   0.24  -0.00
    11   1    -0.00  -0.00   0.37     0.00   0.00  -0.15     0.10   0.28   0.00
    12   1    -0.00   0.00   0.01     0.00  -0.00  -0.56     0.27   0.02   0.00
    13   1     0.00   0.00  -0.36    -0.00  -0.00  -0.16     0.15  -0.26   0.00
    14   1    -0.00  -0.00  -0.34    -0.00  -0.00   0.31    -0.19  -0.26   0.00
    15   1     0.00   0.00   0.30    -0.00  -0.00  -0.38     0.31   0.27   0.00
                      4                      5                      6
                     A'                     A"                     A"
 Frequencies --    388.9783               418.4147               438.4414
 Red. masses --      7.9040                 2.8984                 3.0939
 Frc consts  --      0.7046                 0.2990                 0.3504
 IR Inten    --      8.0059                 0.8374                11.4177
  Atom  AN      X      Y      Z        X      Y      Z        X      Y      Z
     1   6    -0.04   0.20  -0.00     0.00  -0.00  -0.01    -0.00   0.00   0.15
     2   6     0.02   0.02  -0.00    -0.00   0.00  -0.02     0.00  -0.00   0.26
     3   6    -0.03  -0.18  -0.00     0.00   0.00  -0.20    -0.00  -0.00  -0.11
     4   6    -0.03  -0.23   0.00    -0.00   0.00   0.21     0.00  -0.00  -0.11
     5   6     0.03  -0.31  -0.00    -0.00   0.00  -0.02     0.00   0.00   0.21
     6   6     0.08  -0.19  -0.00     0.00   0.00  -0.20    -0.00  -0.00  -0.15
     7   6     0.11  -0.15   0.00    -0.00   0.00   0.21     0.00  -0.00  -0.07
     8   8    -0.00   0.36  -0.00     0.00  -0.00  -0.01     0.00   0.00  -0.02
     9   8    -0.12   0.32   0.00     0.00  -0.00   0.01    -0.00   0.00  -0.05
    10   1     0.07  -0.31  -0.00     0.00   0.00  -0.44    -0.00  -0.00  -0.35
    11   1    -0.00  -0.16   0.00    -0.00   0.00   0.46     0.00  -0.00  -0.29
    12   1     0.02  -0.31  -0.00     0.00   0.00  -0.03    -0.00  -0.00   0.43
    13   1     0.02  -0.11  -0.00     0.00   0.00  -0.40    -0.00  -0.00  -0.37
    14   1     0.06  -0.24   0.00    -0.00   0.00   0.50     0.00   0.00  -0.25
    15   1     0.22   0.35   0.00    -0.00  -0.00   0.11     0.00   0.00  -0.47
                      7                      8                      9
                     A'                     A"                     A'
 Frequencies --    504.7579               601.4220               635.3909
 Red. masses --      7.1855                 1.2223                 6.4049
 Frc consts  --      1.0786                 0.2605                 1.5235
 IR Inten    --      7.1411               102.9183                 0.0779
  Atom  AN      X      Y      Z        X      Y      Z        X      Y      Z
     1   6     0.25   0.11   0.00     0.00  -0.00  -0.05    -0.00   0.01   0.00
     2   6    -0.17   0.02  -0.00    -0.00  -0.00   0.06    -0.14   0.00  -0.00
     3   6    -0.24   0.06   0.00     0.00  -0.00   0.03    -0.20  -0.26  -0.00
     4   6    -0.08   0.09  -0.00     0.00  -0.00  -0.04     0.25  -0.23   0.00
     5   6     0.05  -0.05   0.00     0.00   0.00   0.05     0.15  -0.00  -0.00
     6   6    -0.02  -0.14   0.00    -0.00  -0.00  -0.04     0.22   0.28   0.00
     7   6    -0.18  -0.12  -0.00    -0.00  -0.00   0.02    -0.23   0.22   0.00
     8   8     0.20  -0.27   0.00     0.00   0.00  -0.06    -0.03  -0.01   0.00
     9   8     0.13   0.32  -0.00    -0.00   0.00  -0.01     0.01  -0.00   0.00
    10   1    -0.30   0.14   0.00    -0.00   0.00  -0.02    -0.29  -0.14  -0.00
    11   1    -0.01   0.25  -0.00     0.00  -0.00  -0.15     0.33  -0.06   0.00
    12   1     0.17  -0.03   0.00    -0.00  -0.00   0.07    -0.27  -0.04  -0.00
    13   1     0.05  -0.23   0.00    -0.00  -0.00  -0.13     0.31   0.15   0.00
    14   1    -0.25  -0.28  -0.00    -0.00   0.00  -0.04    -0.30   0.05  -0.00
    15   1    -0.25  -0.25  -0.00     0.00   0.00   0.97    -0.08  -0.01  -0.00
                     10                     11                     12
                     A'                     A"                     A"
 Frequencies --    643.5559               711.1056               733.7838
 Red. masses --      4.7906                 2.3666                 1.8697
 Frc consts  --      1.1690                 0.7051                 0.5932
 IR Inten    --     83.3346                 4.3051               171.5811
  Atom  AN      X      Y      Z        X      Y      Z        X      Y      Z
     1   6    -0.03   0.20  -0.00    -0.00   0.00   0.07    -0.00  -0.00   0.22
     2   6    -0.00   0.20   0.00     0.00   0.00   0.13    -0.00  -0.00   0.00
     3   6    -0.10   0.02   0.00    -0.00  -0.00  -0.12    -0.00   0.00  -0.06
     4   6    -0.14  -0.01  -0.00     0.00  -0.00   0.17    -0.00   0.00  -0.01
     5   6     0.01  -0.19   0.00    -0.00   0.00  -0.11     0.00  -0.00  -0.08
     6   6     0.12   0.01  -0.00    -0.00  -0.00   0.17     0.00   0.00  -0.01
     7   6     0.17   0.04   0.00     0.00  -0.00  -0.12    -0.00   0.00  -0.07
     8   8    -0.19  -0.07  -0.00    -0.00  -0.00  -0.03     0.00  -0.00  -0.07
     9   8     0.23  -0.13  -0.00     0.00  -0.00  -0.02    -0.00  -0.00  -0.07
    10   1     0.02  -0.14   0.00    -0.00  -0.00  -0.50     0.00  -0.00   0.30
    11   1    -0.07   0.14  -0.00     0.00  -0.00  -0.03    -0.00   0.00   0.49
    12   1     0.02  -0.19   0.00     0.00  -0.00  -0.57    -0.00   0.00   0.39
    13   1    -0.00   0.18   0.00    -0.00  -0.00  -0.02     0.00   0.00   0.51
    14   1     0.11  -0.10   0.00     0.00   0.00  -0.50    -0.00  -0.00   0.31
    15   1    -0.74  -0.05   0.00    -0.00   0.00   0.23     0.00  -0.00   0.27
                     13                     14                     15
                     A'                     A"                     A"
 Frequencies --    789.4681               829.4176               882.5822
 Red. masses --      4.5978                 2.8434                 1.2482
 Frc consts  --      1.6884                 1.1525                 0.5729
 IR Inten    --     22.0442                 0.4829                 0.0437
  Atom  AN      X      Y      Z        X      Y      Z        X      Y      Z
     1   6    -0.02  -0.19  -0.00    -0.00   0.00   0.28    -0.00  -0.00  -0.00
     2   6    -0.01   0.08   0.00     0.00  -0.00  -0.24    -0.00   0.00   0.00
     3   6    -0.17   0.06   0.00     0.00  -0.00   0.05    -0.00  -0.00  -0.07
     4   6    -0.21   0.08   0.00     0.00  -0.00   0.02    -0.00   0.00  -0.07
     5   6     0.02  -0.18   0.00    -0.00   0.00   0.11    -0.00   0.00  -0.00
     6   6     0.19   0.12   0.00    -0.00  -0.00   0.02     0.00  -0.00   0.07
     7   6     0.15   0.09  -0.00    -0.00  -0.00   0.06     0.00   0.00   0.08
     8   8     0.18  -0.04  -0.00    -0.00   0.00  -0.06     0.00  -0.00  -0.00
     9   8    -0.18  -0.04   0.00     0.00   0.00  -0.07    -0.00  -0.00   0.00
    10   1    -0.11  -0.03  -0.00     0.00   0.00   0.05    -0.00   0.00   0.47
    11   1    -0.10   0.33  -0.00     0.00  -0.00  -0.51     0.00   0.00   0.52
    12   1     0.02  -0.17  -0.00    -0.00   0.00  -0.53     0.00  -0.00   0.03
    13   1     0.03   0.34  -0.00     0.00  -0.00  -0.54    -0.00   0.00  -0.49
    14   1     0.11  -0.02   0.00    -0.00   0.00  -0.01     0.00   0.00  -0.50
    15   1     0.64  -0.05   0.00    -0.00   0.00   0.08     0.00  -0.00   0.01
                     16                     17                     18
                     A"                     A"                     A'
 Frequencies --    977.5848              1012.9028              1027.7928
 Red. masses --      1.4084                 1.3648                 6.1597
 Frc consts  --      0.7930                 0.8250                 3.8337
 IR Inten    --      1.6035                 0.0480                 1.4024
  Atom  AN      X      Y      Z        X      Y      Z        X      Y      Z
     1   6     0.00   0.00  -0.05    -0.00   0.00  -0.00    -0.01   0.01   0.00
     2   6     0.00  -0.00   0.07    -0.00   0.00   0.01    -0.01   0.05  -0.00
     3   6     0.00   0.00  -0.09    -0.00  -0.00  -0.10    -0.34  -0.22   0.00
     4   6    -0.00   0.00  -0.01     0.00  -0.00   0.08     0.08  -0.02  -0.00
     5   6     0.00  -0.00   0.10    -0.00   0.00   0.02    -0.04   0.36   0.00
     6   6     0.00   0.00   0.02    -0.00  -0.00  -0.09    -0.07  -0.04  -0.00
     7   6    -0.00   0.00  -0.10     0.00  -0.00   0.08     0.38  -0.14  -0.00
     8   8    -0.00   0.00   0.01     0.00  -0.00   0.00     0.02  -0.00   0.00
     9   8     0.00   0.00   0.01    -0.00  -0.00   0.00    -0.01  -0.01  -0.00
    10   1     0.00   0.00   0.52    -0.00  -0.00   0.54    -0.39  -0.17  -0.00
    11   1    -0.00  -0.00   0.04     0.00   0.00  -0.45     0.09   0.04   0.00
    12   1     0.00   0.00  -0.57    -0.00   0.00  -0.09    -0.04   0.37  -0.00
    13   1     0.00  -0.00  -0.10    -0.00   0.00   0.51    -0.10   0.03   0.00
    14   1    -0.00  -0.00   0.59     0.00   0.00  -0.45     0.43  -0.07   0.00
    15   1    -0.00   0.00  -0.00     0.00  -0.00   0.00     0.02  -0.00  -0.00
                     19                     20                     21
                     A"                     A'                     A'
 Frequencies --   1037.7352              1065.9751              1122.7717
 Red. masses --      1.3039                 2.3769                 1.5900
 Frc consts  --      0.8273                 1.5913                 1.1810
 IR Inten    --      0.0117                15.4349                44.6422
  Atom  AN      X      Y      Z        X      Y      Z        X      Y      Z
     1   6    -0.00   0.00  -0.01    -0.02   0.01   0.00     0.03  -0.03   0.00
     2   6    -0.00   0.00   0.01    -0.01   0.05  -0.00     0.05  -0.02  -0.00
     3   6    -0.00  -0.00  -0.05    -0.05   0.06   0.00    -0.04  -0.10  -0.00
     4   6     0.00  -0.00   0.09     0.21  -0.02  -0.00    -0.05   0.06   0.00
     5   6    -0.00   0.00  -0.10     0.01  -0.16  -0.00     0.08  -0.01  -0.00
     6   6    -0.00  -0.00   0.08    -0.19  -0.05   0.00    -0.06  -0.06   0.00
     7   6     0.00  -0.00  -0.04     0.05   0.06  -0.00    -0.05   0.10  -0.00
     8   8     0.00  -0.00   0.00     0.03  -0.01   0.00    -0.05   0.01  -0.00
     9   8    -0.00  -0.00   0.00    -0.02  -0.02  -0.00     0.01   0.01  -0.00
    10   1    -0.00  -0.00   0.31    -0.27   0.38  -0.00     0.18  -0.43   0.00
    11   1     0.00   0.00  -0.51     0.37   0.30   0.00     0.08   0.37  -0.00
    12   1    -0.00   0.00   0.58    -0.02  -0.18   0.00     0.54   0.04   0.00
    13   1    -0.00   0.00  -0.47    -0.44   0.27  -0.00     0.03  -0.19  -0.00
    14   1     0.00  -0.00   0.25     0.16   0.33   0.00     0.12   0.48   0.00
    15   1     0.00  -0.00  -0.00     0.01  -0.01  -0.00     0.08   0.01   0.00
                     22                     23                     24
                     A'                     A'                     A'
 Frequencies --   1152.8904              1201.4945              1213.8739
 Red. masses --      3.6472                 1.1205                 1.2511
 Frc consts  --      2.8562                 0.9531                 1.0861
 IR Inten    --     76.7236                 0.9680               159.2559
  Atom  AN      X      Y      Z        X      Y      Z        X      Y      Z
     1   6    -0.15   0.10   0.00    -0.01   0.01   0.00    -0.03   0.04  -0.00
     2   6    -0.04   0.30  -0.00     0.00   0.01   0.00     0.00  -0.07   0.00
     3   6     0.05  -0.01   0.00    -0.01   0.01  -0.00    -0.02   0.01  -0.00
     4   6     0.06  -0.06   0.00    -0.03  -0.05  -0.00    -0.04  -0.01  -0.00
     5   6     0.01   0.04  -0.00     0.07   0.01   0.00    -0.01  -0.01   0.00
     6   6    -0.06  -0.10   0.00    -0.03   0.03   0.00     0.04  -0.03  -0.00
     7   6    -0.05   0.05  -0.00    -0.01   0.00   0.00     0.02   0.05   0.00
     8   8     0.20  -0.06   0.00     0.01  -0.00  -0.00     0.07   0.01  -0.00
     9   8    -0.09  -0.09  -0.00    -0.00  -0.01   0.00    -0.03  -0.01   0.00
    10   1     0.45  -0.54  -0.00    -0.13   0.17  -0.00    -0.26   0.34  -0.00
    11   1     0.00  -0.20  -0.00    -0.23  -0.50  -0.00    -0.14  -0.24   0.00
    12   1     0.11   0.05   0.00     0.69   0.07   0.00    -0.03  -0.01  -0.00
    13   1     0.13  -0.38  -0.00    -0.23   0.31  -0.00     0.29  -0.37   0.00
    14   1    -0.16  -0.16   0.00    -0.05  -0.08  -0.00     0.24   0.53  -0.00
    15   1    -0.18  -0.05  -0.00    -0.01  -0.00   0.00    -0.40   0.02   0.00
                     25                     26                     27
                     A'                     A'                     A'
 Frequencies --   1235.0517              1360.0470              1372.8214
 Red. masses --      1.5647                 2.0971                 2.3362
 Frc consts  --      1.4062                 2.2854                 2.5941
 IR Inten    --    203.3169                 2.6085                 9.3984
  Atom  AN      X      Y      Z        X      Y      Z        X      Y      Z
     1   6     0.04  -0.05   0.00    -0.01   0.01  -0.00     0.01  -0.01  -0.00
     2   6     0.01   0.13  -0.00     0.23   0.03   0.00     0.04   0.01  -0.00
     3   6    -0.03   0.05   0.00    -0.04   0.02  -0.00    -0.09   0.17   0.00
     4   6     0.02  -0.05   0.00    -0.07  -0.11  -0.00    -0.03  -0.10   0.00
     5   6    -0.00  -0.00  -0.00     0.06   0.01  -0.00     0.17   0.01  -0.00
     6   6    -0.01  -0.06  -0.00    -0.09   0.09   0.00    -0.05   0.09  -0.00
     7   6     0.00   0.04  -0.00    -0.04  -0.04   0.00    -0.05  -0.17  -0.00
     8   8    -0.10  -0.03   0.00     0.01   0.02  -0.00    -0.00   0.00   0.00
     9   8     0.04   0.02  -0.00    -0.02  -0.03   0.00    -0.00  -0.00   0.00
    10   1    -0.14   0.21  -0.00    -0.27   0.34   0.00     0.34  -0.42  -0.00
    11   1    -0.11  -0.34   0.00     0.18   0.46   0.00    -0.07  -0.20   0.00
    12   1    -0.08  -0.01   0.00     0.11   0.01   0.00    -0.41  -0.05  -0.00
    13   1     0.25  -0.42  -0.00     0.24  -0.38   0.00    -0.08   0.12   0.00
    14   1     0.03   0.11   0.00    -0.22  -0.43  -0.00     0.27   0.53   0.00
    15   1     0.71  -0.05  -0.00    -0.15   0.02   0.00    -0.03   0.00  -0.00
                     28                     29                     30
                     A'                     A'                     A'
 Frequencies --   1421.4140              1512.0344              1560.1876
 Red. masses --      2.8404                 2.3145                 2.3638
 Frc consts  --      3.3813                 3.1176                 3.3901
 IR Inten    --    242.4423                27.7838                 4.8749
  Atom  AN      X      Y      Z        X      Y      Z        X      Y      Z
     1   6    -0.24   0.25  -0.00     0.02  -0.04   0.00     0.05  -0.05   0.00
     2   6     0.01  -0.11   0.00    -0.17  -0.01  -0.00    -0.03   0.16  -0.00
     3   6     0.04  -0.04   0.00     0.04   0.10   0.00     0.11  -0.05   0.00
     4   6    -0.05  -0.02  -0.00     0.04  -0.14   0.00    -0.09  -0.13   0.00
     5   6     0.01   0.01  -0.00    -0.14  -0.02   0.00    -0.02   0.11  -0.00
     6   6     0.02   0.05  -0.00    -0.01   0.15   0.00     0.12  -0.10  -0.00
     7   6    -0.02  -0.06  -0.00     0.08  -0.07  -0.00    -0.09  -0.08  -0.00
     8   8     0.04  -0.10   0.00    -0.01   0.00  -0.00    -0.01   0.01   0.00
     9   8     0.07   0.00   0.00     0.01   0.02  -0.00    -0.02  -0.01  -0.00
    10   1    -0.07   0.12  -0.00     0.22  -0.11  -0.00    -0.18   0.37  -0.00
    11   1     0.07   0.25   0.00     0.25   0.28  -0.00     0.17   0.47   0.00
    12   1     0.07   0.03   0.00     0.65   0.06   0.00     0.02   0.13   0.00
    13   1    -0.01   0.10   0.00     0.34  -0.31  -0.00    -0.23   0.41   0.00
    14   1     0.10   0.21   0.00     0.18   0.09   0.00     0.14   0.45   0.00
    15   1     0.82  -0.10  -0.00    -0.02   0.00  -0.00    -0.06   0.00  -0.00
                     31                     32                     33
                     A'                     A'                     A'
 Frequencies --   1675.2536              1695.0348              1840.8971
 Red. masses --      5.9854                 5.7867                10.4852
 Frc consts  --      9.8970                 9.7957                20.9356
 IR Inten    --      7.5979                30.2300               535.0522
  Atom  AN      X      Y      Z        X      Y      Z        X      Y      Z
     1   6    -0.02  -0.05  -0.00    -0.02   0.03   0.00     0.55   0.50   0.00
     2   6    -0.32  -0.03   0.00     0.04  -0.21  -0.00    -0.09  -0.09  -0.00
     3   6     0.20  -0.07  -0.00    -0.13   0.30   0.00     0.03   0.00   0.00
     4   6    -0.20  -0.11  -0.00    -0.03  -0.28   0.00    -0.02  -0.01   0.00
     5   6     0.37   0.05   0.00    -0.04   0.14  -0.00     0.02   0.00  -0.00
     6   6    -0.21   0.03   0.00     0.11  -0.27  -0.00    -0.02   0.02  -0.00
     7   6     0.19   0.15   0.00     0.05   0.30  -0.00     0.03  -0.00  -0.00
     8   8     0.00  -0.00  -0.00    -0.00  -0.00   0.00    -0.07  -0.03   0.00
     9   8     0.03   0.04   0.00     0.01   0.01  -0.00    -0.35  -0.29  -0.00
    10   1    -0.03   0.26   0.00     0.30  -0.28  -0.00     0.02   0.05  -0.00
    11   1    -0.07   0.25   0.00     0.22   0.23   0.00     0.00   0.04   0.00
    12   1    -0.49  -0.04  -0.00     0.01   0.16   0.00    -0.02  -0.01   0.00
    13   1    -0.05  -0.24   0.00    -0.25   0.21   0.00     0.01  -0.03  -0.00
    14   1    -0.01  -0.33  -0.00    -0.24  -0.32   0.00     0.03  -0.04   0.00
    15   1    -0.03  -0.00   0.00     0.03   0.00  -0.00     0.45  -0.03   0.00
                     34                     35                     36
                     A'                     A'                     A'
 Frequencies --   3219.4736              3230.2892              3238.8815
 Red. masses --      1.0867                 1.0903                 1.0944
 Frc consts  --      6.6362                 6.7033                 6.7639
 IR Inten    --      0.6341                13.6938                21.9933
  Atom  AN      X      Y      Z        X      Y      Z        X      Y      Z
     1   6     0.00  -0.00  -0.00     0.00   0.00   0.00    -0.00  -0.00  -0.00
     2   6    -0.00   0.00   0.00    -0.00   0.00  -0.00     0.00  -0.00   0.00
     3   6     0.01   0.01  -0.00     0.02   0.01   0.00    -0.03  -0.02  -0.00
     4   6    -0.03   0.02  -0.00    -0.05   0.02   0.00     0.03  -0.01  -0.00
     5   6     0.01  -0.06   0.00     0.00   0.00  -0.00     0.01  -0.06   0.00
     6   6     0.03   0.03   0.00    -0.05  -0.03  -0.00    -0.04  -0.02   0.00
     7   6    -0.01   0.00   0.00     0.01  -0.00  -0.00     0.02  -0.01   0.00
     8   8    -0.00   0.00  -0.00    -0.00  -0.00   0.00    -0.00  -0.00  -0.00
     9   8    -0.00   0.00   0.00    -0.00   0.00  -0.00     0.00  -0.00   0.00
    10   1    -0.11  -0.08   0.00    -0.24  -0.17   0.00     0.36   0.26   0.00
    11   1     0.41  -0.19  -0.00     0.61  -0.27   0.00    -0.31   0.13  -0.00
    12   1    -0.07   0.72  -0.00    -0.00  -0.00  -0.00    -0.07   0.64  -0.00
    13   1    -0.39  -0.29  -0.00     0.54   0.39   0.00     0.39   0.27  -0.00
    14   1     0.09  -0.04  -0.00    -0.16   0.07   0.00    -0.20   0.09  -0.00
    15   1     0.00   0.00   0.00    -0.00  -0.00  -0.00    -0.00  -0.00   0.00
                     37                     38                     39
                     A'                     A'                     A'
 Frequencies --   3249.0237              3257.6406              3782.0933
 Red. masses --      1.0958                 1.0946                 1.0646
 Frc consts  --      6.8152                 6.8438                 8.9724
 IR Inten    --     13.6464                 5.1657               146.2685
  Atom  AN      X      Y      Z        X      Y      Z        X      Y      Z
     1   6    -0.00  -0.00   0.00    -0.00   0.00  -0.00     0.00  -0.00  -0.00
     2   6     0.00  -0.00  -0.00     0.00   0.00   0.00    -0.00   0.00   0.00
     3   6    -0.06  -0.05   0.00     0.01   0.00  -0.00     0.00  -0.00  -0.00
     4   6    -0.04   0.02   0.00     0.01  -0.00  -0.00     0.00   0.00  -0.00
     5   6    -0.00   0.02  -0.00     0.00  -0.01   0.00    -0.00   0.00   0.00
     6   6     0.01   0.00  -0.00    -0.02  -0.02   0.00    -0.00  -0.00   0.00
     7   6    -0.01   0.01  -0.00    -0.07   0.03   0.00     0.00   0.00   0.00
     8   8     0.00   0.00   0.00     0.00   0.00  -0.00    -0.00  -0.06  -0.00
     9   8     0.00   0.00  -0.00     0.00  -0.00   0.00    -0.00  -0.00   0.00
    10   1     0.67   0.49  -0.00    -0.07  -0.05   0.00     0.00  -0.00   0.00
    11   1     0.43  -0.19   0.00    -0.08   0.04  -0.00    -0.00   0.00  -0.00
    12   1     0.02  -0.21   0.00    -0.01   0.11  -0.00    -0.00   0.00  -0.00
    13   1    -0.06  -0.04   0.00     0.24   0.18  -0.00     0.00   0.00  -0.00
    14   1     0.16  -0.07   0.00     0.85  -0.39  -0.00    -0.00   0.00  -0.00
    15   1    -0.00   0.00  -0.00     0.00   0.00   0.00     0.02   1.00   0.00

 -------------------
 - Thermochemistry -
 -------------------
 Temperature   263.150 Kelvin.  Pressure   1.00000 Atm.
 Atom     1 has atomic number  6 and mass  12.00000
 Atom     2 has atomic number  6 and mass  12.00000
 Atom     3 has atomic number  6 and mass  12.00000
 Atom     4 has atomic number  6 and mass  12.00000
 Atom     5 has atomic number  6 and mass  12.00000
 Atom     6 has atomic number  6 and mass  12.00000
 Atom     7 has atomic number  6 and mass  12.00000
 Atom     8 has atomic number  8 and mass  15.99491
 Atom     9 has atomic number  8 and mass  15.99491
 Atom    10 has atomic number  1 and mass   1.00783
 Atom    11 has atomic number  1 and mass   1.00783
 Atom    12 has atomic number  1 and mass   1.00783
 Atom    13 has atomic number  1 and mass   1.00783
 Atom    14 has atomic number  1 and mass   1.00783
 Atom    15 has atomic number  1 and mass   1.00783
 Molecular mass:   122.03678 amu.
 Principal axes and moments of inertia in atomic units:
                           1         2         3
     Eigenvalues --   463.824581468.546931932.37151
           X           -0.11521   0.99334   0.00000
           Y            0.99334   0.11521   0.00000
           Z           -0.00000  -0.00000   1.00000
 This molecule is an asymmetric top.
 Rotational symmetry number  1.
 Warning -- assumption of classical behavior for rotation
           may cause significant error
 Rotational temperatures (Kelvin)      0.18674     0.05898     0.04482
 Rotational constants (GHZ):           3.89100     1.22893     0.93395
 Zero-point vibrational energy     307937.6 (Joules/Mol)
                                   73.59886 (Kcal/Mol)
 Warning -- explicit consideration of   7 degrees of freedom as
           vibrations may cause significant error
 Vibrational temperatures:     85.04   231.97   319.90   559.65   602.01
          (Kelvin)            630.82   726.23   865.31   914.19   925.93
                             1023.12  1055.75  1135.87  1193.35  1269.84
                             1406.53  1457.34  1478.76  1493.07  1533.70
                             1615.42  1658.75  1728.68  1746.49  1776.96
                             1956.80  1975.18  2045.10  2175.48  2244.76
                             2410.32  2438.78  2648.64  4632.10  4647.67
                             4660.03  4674.62  4687.02  5441.59
 
 Zero-point correction=                           0.117287 (Hartree/Particle)
 Thermal correction to Energy=                    0.122935
 Thermal correction to Enthalpy=                  0.123768
 Thermal correction to Gibbs Free Energy=         0.089804
 Sum of electronic and zero-point Energies=           -420.571858
 Sum of electronic and thermal Energies=              -420.566210
 Sum of electronic and thermal Enthalpies=            -420.565377
 Sum of electronic and thermal Free Energies=         -420.599341
 
                     E (Thermal)             CV                S
                      KCal/Mol        Cal/Mol-Kelvin    Cal/Mol-Kelvin
 Total                   77.143             23.696             80.991
 Electronic               0.000              0.000              0.000
 Translational            0.784              2.981             39.691
 Rotational               0.784              2.981             28.294
 Vibrational             75.574             17.735             13.005
 Vibration     1          0.527              1.970              4.241
 Vibration     2          0.556              1.863              2.301
 Vibration     3          0.586              1.760              1.717
 Vibration     4          0.707              1.381              0.824
 Vibration     5          0.733              1.308              0.726
 Vibration     6          0.752              1.257              0.666
 Vibration     7          0.819              1.092              0.501
                       Q            Log10(Q)             Ln(Q)
 Total Bot       0.158165D-46        -46.800890       -107.763032
 Total V=0       0.210281D+15         14.322800         32.979466
 Vib (Bot)       0.119766D-59        -59.921666       -137.974735
 Vib (Bot)    1  0.308109D+01          0.488705          1.125285
 Vib (Bot)    2  0.109851D+01          0.040803          0.093952
 Vib (Bot)    3  0.774051D+00         -0.111230         -0.256117
 Vib (Bot)    4  0.392029D+00         -0.406682         -0.936420
 Vib (Bot)    5  0.354582D+00         -0.450283         -1.036815
 Vib (Bot)    6  0.331804D+00         -0.479119         -1.103212
 Vib (Bot)    7  0.268612D+00         -0.570875         -1.314487
 Vib (V=0)       0.159230D+02          1.202024          2.767763
 Vib (V=0)    1  0.362140D+01          0.558877          1.286861
 Vib (V=0)    2  0.170695D+01          0.232220          0.534706
 Vib (V=0)    3  0.142150D+01          0.152746          0.351710
 Vib (V=0)    4  0.113536D+01          0.055135          0.126953
 Vib (V=0)    5  0.111297D+01          0.046482          0.107029
 Vib (V=0)    6  0.110008D+01          0.041424          0.095381
 Vib (V=0)    7  0.106758D+01          0.028402          0.065399
 Electronic      0.100000D+01          0.000000          0.000000
 Translational   0.387803D+08          7.588611         17.473423
 Rotational      0.340537D+06          5.532165         12.738280
 ***** Axes restored to original set *****
 -------------------------------------------------------------------
 Center     Atomic                   Forces (Hartrees/Bohr)
 Number     Number              X              Y              Z
 -------------------------------------------------------------------
      1        6          -0.000138160    0.000030801   -0.000000000
      2        6           0.000040812   -0.000018782   -0.000000000
      3        6          -0.000009497   -0.000004482   -0.000000000
      4        6          -0.000004323    0.000021929    0.000000000
      5        6           0.000007225    0.000005639   -0.000000000
      6        6          -0.000019935   -0.000019321   -0.000000000
      7        6           0.000003256    0.000024162   -0.000000000
      8        8           0.000083819    0.000021906   -0.000000000
      9        8           0.000056078   -0.000030312    0.000000000
     10        1           0.000006732    0.000009848    0.000000000
     11        1          -0.000001199    0.000004028   -0.000000000
     12        1          -0.000007596    0.000001344    0.000000000
     13        1          -0.000010156   -0.000008165    0.000000000
     14        1          -0.000008917   -0.000011026    0.000000000
     15        1           0.000001862   -0.000027569    0.000000000
 -------------------------------------------------------------------
 Cartesian Forces:  Max     0.000138160 RMS     0.000028689
 FormGI is forming the generalized inverse of G from B-inverse, IUseBI=4.

 ----------------------------------------------------------------------

 Electric dipole moment (input orientation):
 (Debye = 10**-18 statcoulomb cm , SI units = C m)
                  (au)            (Debye)         (10**-30 SI)
   Tot        0.948473D+00      0.241078D+01      0.804149D+01
   x          0.610056D+00      0.155061D+01      0.517227D+01
   y         -0.726245D+00     -0.184593D+01     -0.615736D+01
   z          0.000000D+00      0.000000D+00      0.000000D+00

 Dipole polarizability, Alpha (input orientation).
 (esu units = cm**3 , SI units = C**2 m**2 J**-1)
 Alpha(0;0):
               (au)            (10**-24 esu)      (10**-40 SI)
   iso        0.889572D+02      0.131821D+02      0.146671D+02
   aniso      0.875821D+02      0.129783D+02      0.144403D+02
   xx         0.107180D+03      0.158825D+02      0.176717D+02
   yx         0.104813D+01      0.155317D+00      0.172814D+00
   yy         0.127874D+03      0.189489D+02      0.210835D+02
   zx         0.000000D+00      0.000000D+00      0.000000D+00
   zy         0.000000D+00      0.000000D+00      0.000000D+00
   zz         0.318173D+02      0.471484D+01      0.524596D+01

 ----------------------------------------------------------------------

 Dipole orientation:
     6          1.72090073          1.44558227         -2.31277229
     6          0.20915022          0.17568930         -0.31398150
     6         -1.72812658         -1.45165209         -1.06848480
     6         -3.18975261         -2.67943975          0.73440215
     6         -2.72000347         -2.28484348          3.29641314
     6         -0.78868505         -0.66250720          4.05428525
     6          0.67822769          0.56972137          2.25543014
     8          3.52907202          2.96447312         -1.38494819
     8          1.39290215          1.17005858         -4.56623588
     1         -2.06711747         -1.73640950         -3.07022809
     1         -4.69395567         -3.94299276          0.14498265
     1         -3.86174675         -3.24392485          4.70596320
     1         -0.42473474         -0.35678352          6.04950486
     1          2.18218198          1.83306540          2.83863114
     1          4.40279240          3.69841127         -2.82193824

 Electric dipole moment (dipole orientation):
 (Debye = 10**-18 statcoulomb cm , SI units = C m)
                  (au)            (Debye)         (10**-30 SI)
   Tot        0.948473D+00      0.241078D+01      0.804149D+01
   x          0.000000D+00      0.000000D+00      0.000000D+00
   y          0.000000D+00      0.000000D+00      0.000000D+00
   z          0.948473D+00      0.241078D+01      0.804149D+01

 Dipole polarizability, Alpha (dipole orientation).
 (esu units = cm**3 , SI units = C**2 m**2 J**-1)
 Alpha(0;0):
               (au)            (10**-24 esu)      (10**-40 SI)
   iso        0.889572D+02      0.131821D+02      0.146671D+02
   aniso      0.875821D+02      0.129783D+02      0.144403D+02
   xx         0.816269D+02      0.120959D+02      0.134585D+02
   yx         0.418408D+02      0.620016D+01      0.689861D+01
   yy         0.669642D+02      0.992307D+01      0.110409D+02
   zx        -0.794210D+01     -0.117690D+01     -0.130948D+01
   zy        -0.667148D+01     -0.988612D+00     -0.109998D+01
   zz         0.118280D+03      0.175274D+02      0.195018D+02

 ----------------------------------------------------------------------

 This type of calculation cannot be archived.


 EDUCATION WITHOUT COMMON SENSE IS A LOAD OF BOOKS ON THE BACK OF AN ASS.
 Job cpu time:       0 days  0 hours  0 minutes  1.5 seconds.
 Elapsed time:       0 days  0 hours  0 minutes  0.4 seconds.
 File lengths (MBytes):  RWF=      6 Int=      0 D2E=      0 Chk=      7 Scr=      1
 Normal termination of Gaussian 16 at Sat Apr  4 19:28:17 2020.
