 Entering Gaussian System, Link 0=g16
 Input=ph3po.gjf
 Output=ph3po.log
 Initial command:
 /apps/cent7/gaussian/g16-A.03/g16-haswell/g16/l1.exe "/scratch/brown/finej/0051_imine_mechanism/ts_631gd/other_complete/Gau-40943.inp" -scrdir="/scratch/brown/finej/0051_imine_mechanism/ts_631gd/other_complete/"
 Entering Link 1 = /apps/cent7/gaussian/g16-A.03/g16-haswell/g16/l1.exe PID=     40944.
  
 Copyright (c) 1988,1990,1992,1993,1995,1998,2003,2009,2016,
            Gaussian, Inc.  All Rights Reserved.
  
 This is part of the Gaussian(R) 16 program.  It is based on
 the Gaussian(R) 09 system (copyright 2009, Gaussian, Inc.),
 the Gaussian(R) 03 system (copyright 2003, Gaussian, Inc.),
 the Gaussian(R) 98 system (copyright 1998, Gaussian, Inc.),
 the Gaussian(R) 94 system (copyright 1995, Gaussian, Inc.),
 the Gaussian 92(TM) system (copyright 1992, Gaussian, Inc.),
 the Gaussian 90(TM) system (copyright 1990, Gaussian, Inc.),
 the Gaussian 88(TM) system (copyright 1988, Gaussian, Inc.),
 the Gaussian 86(TM) system (copyright 1986, Carnegie Mellon
 University), and the Gaussian 82(TM) system (copyright 1983,
 Carnegie Mellon University). Gaussian is a federally registered
 trademark of Gaussian, Inc.
  
 This software contains proprietary and confidential information,
 including trade secrets, belonging to Gaussian, Inc.
  
 This software is provided under written license and may be
 used, copied, transmitted, or stored only in accord with that
 written license.
  
 The following legend is applicable only to US Government
 contracts under FAR:
  
                    RESTRICTED RIGHTS LEGEND
  
 Use, reproduction and disclosure by the US Government is
 subject to restrictions as set forth in subparagraphs (a)
 and (c) of the Commercial Computer Software - Restricted
 Rights clause in FAR 52.227-19.
  
 Gaussian, Inc.
 340 Quinnipiac St., Bldg. 40, Wallingford CT 06492
  
  
 ---------------------------------------------------------------
 Warning -- This program may not be used in any manner that
 competes with the business of Gaussian, Inc. or will provide
 assistance to any competitor of Gaussian, Inc.  The licensee
 of this program is prohibited from giving any competitor of
 Gaussian, Inc. access to this program.  By using this program,
 the user acknowledges that Gaussian, Inc. is engaged in the
 business of creating and licensing software in the field of
 computational chemistry and represents and warrants to the
 licensee that it is not a competitor of Gaussian, Inc. and that
 it will not use this program in any manner prohibited above.
 ---------------------------------------------------------------
  

 Cite this work as:
 Gaussian 16, Revision A.03,
 M. J. Frisch, G. W. Trucks, H. B. Schlegel, G. E. Scuseria, 
 M. A. Robb, J. R. Cheeseman, G. Scalmani, V. Barone, 
 G. A. Petersson, H. Nakatsuji, X. Li, M. Caricato, A. V. Marenich, 
 J. Bloino, B. G. Janesko, R. Gomperts, B. Mennucci, H. P. Hratchian, 
 J. V. Ortiz, A. F. Izmaylov, J. L. Sonnenberg, D. Williams-Young, 
 F. Ding, F. Lipparini, F. Egidi, J. Goings, B. Peng, A. Petrone, 
 T. Henderson, D. Ranasinghe, V. G. Zakrzewski, J. Gao, N. Rega, 
 G. Zheng, W. Liang, M. Hada, M. Ehara, K. Toyota, R. Fukuda, 
 J. Hasegawa, M. Ishida, T. Nakajima, Y. Honda, O. Kitao, H. Nakai, 
 T. Vreven, K. Throssell, J. A. Montgomery, Jr., J. E. Peralta, 
 F. Ogliaro, M. J. Bearpark, J. J. Heyd, E. N. Brothers, K. N. Kudin, 
 V. N. Staroverov, T. A. Keith, R. Kobayashi, J. Normand, 
 K. Raghavachari, A. P. Rendell, J. C. Burant, S. S. Iyengar, 
 J. Tomasi, M. Cossi, J. M. Millam, M. Klene, C. Adamo, R. Cammi, 
 J. W. Ochterski, R. L. Martin, K. Morokuma, O. Farkas, 
 J. B. Foresman, and D. J. Fox, Gaussian, Inc., Wallingford CT, 2016.
 
 ******************************************
 Gaussian 16:  ES64L-G16RevA.03 25-Dec-2016
                 4-Apr-2020 
 ******************************************
 %nprocshared=4
 Will use up to    4 processors via shared memory.
 %mem=1GB
 %oldchk=triphenylphosphine_oxide.chk
 Copying data from "triphenylphosphine_oxide.chk" to current chk file "/scratch/brown/finej/0051_imine_mechanism/ts_631gd/other_complete/Gau-40944.chk"
 IOpt=  2 FromEx=T IUOpen= 4 IOptOp= 5 NList=   0 IFRang= 0 IUIn= 4 IUOut= 2.
 ----------------------------------------------------------------------
 # freq=readfc wb97xd/6-31g(d) scrf=solvent=dichloromethane geom=check 
 temperature=263.15
 ----------------------------------------------------------------------
 1/29=2,38=1,112=263150,172=1/1;
 2/12=2,40=1/2;
 7/8=1,25=11/16;
 99/5=2/99;
 ------------------------
 triphenylphosphine oxide
 ------------------------
 Structure from the checkpoint file:  "/scratch/brown/finej/0051_imine_mechanism/ts_631gd/other_complete/Gau-40944.chk"
 Charge =  0 Multiplicity = 1
 Redundant internal coordinates found in file.  (old form).
 O,0,-0.008288237,-0.0004025661,2.4544943882
 P,0,-0.0046090084,-0.0004954973,0.9519725171
 C,0,-1.9579508275,-3.8069414602,-0.7580007887
 C,0,-0.9361523594,-3.1930682195,-1.4786680194
 C,0,-0.3190147007,-2.0500818644,-0.9776419008
 C,0,-0.7282496018,-1.511781433,0.2460645357
 C,0,-1.7509638561,-2.135576836,0.9679162126
 C,0,-2.3631666667,-3.2798060076,0.466619369
 H,0,-2.4355113886,-4.7003652733,-1.1486970331
 H,0,-0.6140043431,-3.6073692583,-2.4289402477
 H,0,0.4854167584,-1.5844624168,-1.5398986359
 H,0,-2.0564910464,-1.7283028614,1.9271696522
 H,0,-3.1543070882,-3.7616922686,1.0326034208
 C,0,4.2728502238,0.2052131997,-0.7478021644
 C,0,3.2323414221,0.7823438899,-1.4720134571
 C,0,1.9328184679,0.7473264926,-0.9737203871
 C,0,1.6681488025,0.1267451212,0.2508155997
 C,0,2.7177468246,-0.4462190457,0.9763093435
 C,0,4.0158520964,-0.4063798646,0.4776365213
 H,0,5.2862114254,0.23664211,-1.1364458548
 H,0,3.4324838158,1.2662297075,-2.4229363513
 H,0,1.1287396315,1.2103296078,-1.5387533292
 H,0,2.5156400677,-0.912185566,1.9362366016
 H,0,4.8272454877,-0.8499945075,1.0462279682
 C,0,-2.308514645,3.601930771,-0.7636385313
 C,0,-2.2996285403,2.4067687365,-1.478914942
 C,0,-1.6239529521,1.2981471091,-0.9759615463
 C,0,-0.9473053739,1.3839487085,0.2444135264
 C,0,-0.9643573271,2.5850538874,0.9609390365
 C,0,-1.6433201913,3.6899954072,0.4577134832
 H,0,-2.8387735903,4.4643997101,-1.1559132976
 H,0,-2.8241899322,2.3344328369,-2.4265787796
 H,0,-1.6319929148,0.3662779251,-1.5342069409
 H,0,-0.4541794239,2.6469345714,1.9176475515
 H,0,-1.6556650091,4.6188101544,1.0195104798
 Recover connectivity data from disk.
                           ----------------------------
                           !    Current Parameters    !
                           ! (Angstroms and Degrees)  !
 --------------------------                            --------------------------
 ! Name  Definition              Value          Derivative Info.                !
 --------------------------------------------------------------------------------
 ! R1    R(1,2)                  1.5025         estimate D2E/DX2                !
 ! R2    R(2,6)                  1.8182         estimate D2E/DX2                !
 ! R3    R(2,17)                 1.8182         estimate D2E/DX2                !
 ! R4    R(2,28)                 1.8182         estimate D2E/DX2                !
 ! R5    R(3,4)                  1.3929         estimate D2E/DX2                !
 ! R6    R(3,8)                  1.3935         estimate D2E/DX2                !
 ! R7    R(3,9)                  1.0858         estimate D2E/DX2                !
 ! R8    R(4,5)                  1.3922         estimate D2E/DX2                !
 ! R9    R(4,10)                 1.0856         estimate D2E/DX2                !
 ! R10   R(5,6)                  1.3981         estimate D2E/DX2                !
 ! R11   R(5,11)                 1.0863         estimate D2E/DX2                !
 ! R12   R(6,7)                  1.3986         estimate D2E/DX2                !
 ! R13   R(7,8)                  1.3912         estimate D2E/DX2                !
 ! R14   R(7,12)                 1.086          estimate D2E/DX2                !
 ! R15   R(8,13)                 1.0856         estimate D2E/DX2                !
 ! R16   R(14,15)                1.3929         estimate D2E/DX2                !
 ! R17   R(14,19)                1.3935         estimate D2E/DX2                !
 ! R18   R(14,20)                1.0858         estimate D2E/DX2                !
 ! R19   R(15,16)                1.3922         estimate D2E/DX2                !
 ! R20   R(15,21)                1.0856         estimate D2E/DX2                !
 ! R21   R(16,17)                1.3981         estimate D2E/DX2                !
 ! R22   R(16,22)                1.0864         estimate D2E/DX2                !
 ! R23   R(17,18)                1.3987         estimate D2E/DX2                !
 ! R24   R(18,19)                1.3912         estimate D2E/DX2                !
 ! R25   R(18,23)                1.086          estimate D2E/DX2                !
 ! R26   R(19,24)                1.0856         estimate D2E/DX2                !
 ! R27   R(25,26)                1.3929         estimate D2E/DX2                !
 ! R28   R(25,30)                1.3935         estimate D2E/DX2                !
 ! R29   R(25,31)                1.0858         estimate D2E/DX2                !
 ! R30   R(26,27)                1.3923         estimate D2E/DX2                !
 ! R31   R(26,32)                1.0856         estimate D2E/DX2                !
 ! R32   R(27,28)                1.398          estimate D2E/DX2                !
 ! R33   R(27,33)                1.0863         estimate D2E/DX2                !
 ! R34   R(28,29)                1.3987         estimate D2E/DX2                !
 ! R35   R(29,30)                1.3911         estimate D2E/DX2                !
 ! R36   R(29,34)                1.086          estimate D2E/DX2                !
 ! R37   R(30,35)                1.0856         estimate D2E/DX2                !
 ! A1    A(1,2,6)              112.7876         estimate D2E/DX2                !
 ! A2    A(1,2,17)             112.8224         estimate D2E/DX2                !
 ! A3    A(1,2,28)             112.8193         estimate D2E/DX2                !
 ! A4    A(6,2,17)             105.9383         estimate D2E/DX2                !
 ! A5    A(6,2,28)             105.9891         estimate D2E/DX2                !
 ! A6    A(17,2,28)            105.8808         estimate D2E/DX2                !
 ! A7    A(4,3,8)              120.0848         estimate D2E/DX2                !
 ! A8    A(4,3,9)              119.9409         estimate D2E/DX2                !
 ! A9    A(8,3,9)              119.9735         estimate D2E/DX2                !
 ! A10   A(3,4,5)              120.0519         estimate D2E/DX2                !
 ! A11   A(3,4,10)             120.1582         estimate D2E/DX2                !
 ! A12   A(5,4,10)             119.7887         estimate D2E/DX2                !
 ! A13   A(4,5,6)              120.0878         estimate D2E/DX2                !
 ! A14   A(4,5,11)             119.5961         estimate D2E/DX2                !
 ! A15   A(6,5,11)             120.3148         estimate D2E/DX2                !
 ! A16   A(2,6,5)              122.9113         estimate D2E/DX2                !
 ! A17   A(2,6,7)              117.4751         estimate D2E/DX2                !
 ! A18   A(5,6,7)              119.6072         estimate D2E/DX2                !
 ! A19   A(6,7,8)              120.1754         estimate D2E/DX2                !
 ! A20   A(6,7,12)             119.6262         estimate D2E/DX2                !
 ! A21   A(8,7,12)             120.1946         estimate D2E/DX2                !
 ! A22   A(3,8,7)              119.9901         estimate D2E/DX2                !
 ! A23   A(3,8,13)             120.1455         estimate D2E/DX2                !
 ! A24   A(7,8,13)             119.8642         estimate D2E/DX2                !
 ! A25   A(15,14,19)           120.0864         estimate D2E/DX2                !
 ! A26   A(15,14,20)           119.9391         estimate D2E/DX2                !
 ! A27   A(19,14,20)           119.9738         estimate D2E/DX2                !
 ! A28   A(14,15,16)           120.0498         estimate D2E/DX2                !
 ! A29   A(14,15,21)           120.159          estimate D2E/DX2                !
 ! A30   A(16,15,21)           119.79           estimate D2E/DX2                !
 ! A31   A(15,16,17)           120.0893         estimate D2E/DX2                !
 ! A32   A(15,16,22)           119.6039         estimate D2E/DX2                !
 ! A33   A(17,16,22)           120.3056         estimate D2E/DX2                !
 ! A34   A(2,17,16)            122.8869         estimate D2E/DX2                !
 ! A35   A(2,17,18)            117.4965         estimate D2E/DX2                !
 ! A36   A(16,17,18)           119.6094         estimate D2E/DX2                !
 ! A37   A(17,18,19)           120.1697         estimate D2E/DX2                !
 ! A38   A(17,18,23)           119.6427         estimate D2E/DX2                !
 ! A39   A(19,18,23)           120.1839         estimate D2E/DX2                !
 ! A40   A(14,19,18)           119.9927         estimate D2E/DX2                !
 ! A41   A(14,19,24)           120.1401         estimate D2E/DX2                !
 ! A42   A(18,19,24)           119.8669         estimate D2E/DX2                !
 ! A43   A(26,25,30)           120.0829         estimate D2E/DX2                !
 ! A44   A(26,25,31)           119.9449         estimate D2E/DX2                !
 ! A45   A(30,25,31)           119.9714         estimate D2E/DX2                !
 ! A46   A(25,26,27)           120.0537         estimate D2E/DX2                !
 ! A47   A(25,26,32)           120.1576         estimate D2E/DX2                !
 ! A48   A(27,26,32)           119.7876         estimate D2E/DX2                !
 ! A49   A(26,27,28)           120.0886         estimate D2E/DX2                !
 ! A50   A(26,27,33)           119.5914         estimate D2E/DX2                !
 ! A51   A(28,27,33)           120.3188         estimate D2E/DX2                !
 ! A52   A(2,28,27)            122.9492         estimate D2E/DX2                !
 ! A53   A(2,28,29)            117.4403         estimate D2E/DX2                !
 ! A54   A(27,28,29)           119.6025         estimate D2E/DX2                !
 ! A55   A(28,29,30)           120.1804         estimate D2E/DX2                !
 ! A56   A(28,29,34)           119.6364         estimate D2E/DX2                !
 ! A57   A(30,29,34)           120.1795         estimate D2E/DX2                !
 ! A58   A(25,30,29)           119.9893         estimate D2E/DX2                !
 ! A59   A(25,30,35)           120.1464         estimate D2E/DX2                !
 ! A60   A(29,30,35)           119.8641         estimate D2E/DX2                !
 ! D1    D(1,2,6,5)           -149.3059         estimate D2E/DX2                !
 ! D2    D(1,2,6,7)             31.6144         estimate D2E/DX2                !
 ! D3    D(17,2,6,5)           -25.4223         estimate D2E/DX2                !
 ! D4    D(17,2,6,7)           155.498          estimate D2E/DX2                !
 ! D5    D(28,2,6,5)            86.7788         estimate D2E/DX2                !
 ! D6    D(28,2,6,7)           -92.3008         estimate D2E/DX2                !
 ! D7    D(1,2,17,16)         -149.3231         estimate D2E/DX2                !
 ! D8    D(1,2,17,18)           31.6602         estimate D2E/DX2                !
 ! D9    D(6,2,17,16)           86.8151         estimate D2E/DX2                !
 ! D10   D(6,2,17,18)          -92.2016         estimate D2E/DX2                !
 ! D11   D(28,2,17,16)         -25.4617         estimate D2E/DX2                !
 ! D12   D(28,2,17,18)         155.5216         estimate D2E/DX2                !
 ! D13   D(1,2,28,27)         -148.6847         estimate D2E/DX2                !
 ! D14   D(1,2,28,29)           32.3481         estimate D2E/DX2                !
 ! D15   D(6,2,28,27)          -24.7893         estimate D2E/DX2                !
 ! D16   D(6,2,28,29)          156.2434         estimate D2E/DX2                !
 ! D17   D(17,2,28,27)          87.452          estimate D2E/DX2                !
 ! D18   D(17,2,28,29)         -91.5153         estimate D2E/DX2                !
 ! D19   D(8,3,4,5)             -0.1012         estimate D2E/DX2                !
 ! D20   D(8,3,4,10)           179.4995         estimate D2E/DX2                !
 ! D21   D(9,3,4,5)           -179.775          estimate D2E/DX2                !
 ! D22   D(9,3,4,10)            -0.1744         estimate D2E/DX2                !
 ! D23   D(4,3,8,7)              0.287          estimate D2E/DX2                !
 ! D24   D(4,3,8,13)          -179.5415         estimate D2E/DX2                !
 ! D25   D(9,3,8,7)            179.9608         estimate D2E/DX2                !
 ! D26   D(9,3,8,13)             0.1323         estimate D2E/DX2                !
 ! D27   D(3,4,5,6)             -0.3492         estimate D2E/DX2                !
 ! D28   D(3,4,5,11)           179.2438         estimate D2E/DX2                !
 ! D29   D(10,4,5,6)          -179.9513         estimate D2E/DX2                !
 ! D30   D(10,4,5,11)           -0.3584         estimate D2E/DX2                !
 ! D31   D(4,5,6,2)           -178.4505         estimate D2E/DX2                !
 ! D32   D(4,5,6,7)              0.6104         estimate D2E/DX2                !
 ! D33   D(11,5,6,2)             1.9595         estimate D2E/DX2                !
 ! D34   D(11,5,6,7)          -178.9796         estimate D2E/DX2                !
 ! D35   D(2,6,7,8)            178.6864         estimate D2E/DX2                !
 ! D36   D(2,6,7,12)            -2.0182         estimate D2E/DX2                !
 ! D37   D(5,6,7,8)             -0.4249         estimate D2E/DX2                !
 ! D38   D(5,6,7,12)           178.8704         estimate D2E/DX2                !
 ! D39   D(6,7,8,3)             -0.0224         estimate D2E/DX2                !
 ! D40   D(6,7,8,13)           179.8066         estimate D2E/DX2                !
 ! D41   D(12,7,8,3)          -179.3137         estimate D2E/DX2                !
 ! D42   D(12,7,8,13)            0.5153         estimate D2E/DX2                !
 ! D43   D(19,14,15,16)         -0.1032         estimate D2E/DX2                !
 ! D44   D(19,14,15,21)        179.4993         estimate D2E/DX2                !
 ! D45   D(20,14,15,16)       -179.7839         estimate D2E/DX2                !
 ! D46   D(20,14,15,21)         -0.1814         estimate D2E/DX2                !
 ! D47   D(15,14,19,18)          0.2837         estimate D2E/DX2                !
 ! D48   D(15,14,19,24)       -179.5486         estimate D2E/DX2                !
 ! D49   D(20,14,19,18)        179.9643         estimate D2E/DX2                !
 ! D50   D(20,14,19,24)          0.132          estimate D2E/DX2                !
 ! D51   D(14,15,16,17)         -0.3441         estimate D2E/DX2                !
 ! D52   D(14,15,16,22)        179.2556         estimate D2E/DX2                !
 ! D53   D(21,15,16,17)       -179.9481         estimate D2E/DX2                !
 ! D54   D(21,15,16,22)         -0.3484         estimate D2E/DX2                !
 ! D55   D(15,16,17,2)        -178.3892         estimate D2E/DX2                !
 ! D56   D(15,16,17,18)          0.6076         estimate D2E/DX2                !
 ! D57   D(22,16,17,2)           2.0139         estimate D2E/DX2                !
 ! D58   D(22,16,17,18)       -178.9893         estimate D2E/DX2                !
 ! D59   D(2,17,18,19)         178.6228         estimate D2E/DX2                !
 ! D60   D(2,17,18,23)          -2.08           estimate D2E/DX2                !
 ! D61   D(16,17,18,19)         -0.4275         estimate D2E/DX2                !
 ! D62   D(16,17,18,23)        178.8697         estimate D2E/DX2                !
 ! D63   D(17,18,19,14)         -0.0167         estimate D2E/DX2                !
 ! D64   D(17,18,19,24)        179.816          estimate D2E/DX2                !
 ! D65   D(23,18,19,14)       -179.3101         estimate D2E/DX2                !
 ! D66   D(23,18,19,24)          0.5227         estimate D2E/DX2                !
 ! D67   D(30,25,26,27)         -0.1124         estimate D2E/DX2                !
 ! D68   D(30,25,26,32)        179.5013         estimate D2E/DX2                !
 ! D69   D(31,25,26,27)       -179.7958         estimate D2E/DX2                !
 ! D70   D(31,25,26,32)         -0.182          estimate D2E/DX2                !
 ! D71   D(26,25,30,29)          0.287          estimate D2E/DX2                !
 ! D72   D(26,25,30,35)       -179.5526         estimate D2E/DX2                !
 ! D73   D(31,25,30,29)        179.9703         estimate D2E/DX2                !
 ! D74   D(31,25,30,35)          0.1307         estimate D2E/DX2                !
 ! D75   D(25,26,27,28)         -0.3293         estimate D2E/DX2                !
 ! D76   D(25,26,27,33)        179.2616         estimate D2E/DX2                !
 ! D77   D(32,26,27,28)       -179.9445         estimate D2E/DX2                !
 ! D78   D(32,26,27,33)         -0.3535         estimate D2E/DX2                !
 ! D79   D(26,27,28,2)        -178.3528         estimate D2E/DX2                !
 ! D80   D(26,27,28,29)          0.5931         estimate D2E/DX2                !
 ! D81   D(33,27,28,2)           2.0593         estimate D2E/DX2                !
 ! D82   D(33,27,28,29)       -178.9948         estimate D2E/DX2                !
 ! D83   D(2,28,29,30)         178.5844         estimate D2E/DX2                !
 ! D84   D(2,28,29,34)          -2.1106         estimate D2E/DX2                !
 ! D85   D(27,28,29,30)         -0.4189         estimate D2E/DX2                !
 ! D86   D(27,28,29,34)        178.8861         estimate D2E/DX2                !
 ! D87   D(28,29,30,25)         -0.0198         estimate D2E/DX2                !
 ! D88   D(28,29,30,35)        179.8203         estimate D2E/DX2                !
 ! D89   D(34,29,30,25)       -179.321          estimate D2E/DX2                !
 ! D90   D(34,29,30,35)          0.5191         estimate D2E/DX2                !
 --------------------------------------------------------------------------------
                          Input orientation:                          
 ---------------------------------------------------------------------
 Center     Atomic      Atomic             Coordinates (Angstroms)
 Number     Number       Type             X           Y           Z
 ---------------------------------------------------------------------
      1          8           0       -0.008288   -0.000403    2.454494
      2         15           0       -0.004609   -0.000495    0.951973
      3          6           0       -1.957951   -3.806941   -0.758001
      4          6           0       -0.936152   -3.193068   -1.478668
      5          6           0       -0.319015   -2.050082   -0.977642
      6          6           0       -0.728250   -1.511781    0.246065
      7          6           0       -1.750964   -2.135577    0.967916
      8          6           0       -2.363167   -3.279806    0.466619
      9          1           0       -2.435511   -4.700365   -1.148697
     10          1           0       -0.614004   -3.607369   -2.428940
     11          1           0        0.485417   -1.584462   -1.539899
     12          1           0       -2.056491   -1.728303    1.927170
     13          1           0       -3.154307   -3.761692    1.032603
     14          6           0        4.272850    0.205213   -0.747802
     15          6           0        3.232341    0.782344   -1.472013
     16          6           0        1.932818    0.747326   -0.973720
     17          6           0        1.668149    0.126745    0.250816
     18          6           0        2.717747   -0.446219    0.976309
     19          6           0        4.015852   -0.406380    0.477637
     20          1           0        5.286211    0.236642   -1.136446
     21          1           0        3.432484    1.266230   -2.422936
     22          1           0        1.128740    1.210330   -1.538753
     23          1           0        2.515640   -0.912186    1.936237
     24          1           0        4.827245   -0.849995    1.046228
     25          6           0       -2.308515    3.601931   -0.763639
     26          6           0       -2.299629    2.406769   -1.478915
     27          6           0       -1.623953    1.298147   -0.975962
     28          6           0       -0.947305    1.383949    0.244414
     29          6           0       -0.964357    2.585054    0.960939
     30          6           0       -1.643320    3.689995    0.457713
     31          1           0       -2.838774    4.464400   -1.155913
     32          1           0       -2.824190    2.334433   -2.426579
     33          1           0       -1.631993    0.366278   -1.534207
     34          1           0       -0.454179    2.646935    1.917648
     35          1           0       -1.655665    4.618810    1.019510
 ---------------------------------------------------------------------
                    Distance matrix (angstroms):
                    1          2          3          4          5
     1  O    0.000000
     2  P    1.502526   0.000000
     3  C    5.348930   4.607449   0.000000
     4  C    5.150127   4.119260   1.392937   0.000000
     5  C    4.009650   2.832502   2.412656   1.392230   0.000000
     6  C    2.771240   1.818226   2.790712   2.417571   1.398105
     7  C    3.131422   2.758366   2.411450   2.787110   2.417227
     8  C    4.500176   4.068444   1.393473   2.414133   2.788668
     9  H    6.400316   5.693055   1.085778   2.151488   3.396001
    10  H    6.101232   4.981112   2.153616   1.085561   2.149053
    11  H    4.325294   2.993075   3.394234   2.147608   1.086298
    12  H    2.731089   2.854216   3.397144   3.873038   3.400044
    13  H    5.105537   4.906496   2.153968   3.398533   3.874220
    14  C    5.350246   4.607408   7.410828   6.262283   5.120977
    15  C    5.150906   4.119028   6.964947   5.760233   4.569373
    16  C    4.009944   2.832165   5.993828   4.900273   3.591137
    17  C    2.771788   1.818222   5.444281   4.560116   3.193196
    18  C    3.132898   2.758710   6.013687   5.188745   3.951230
    19  C    4.501832   4.068642   6.984049   6.009585   4.859080
    20  H    6.401779   5.693023   8.304919   7.113216   6.055814
    21  H    6.101852   4.980784   7.587217   6.313633   5.211577
    22  H    4.324897   2.992372   5.942242   4.863877   3.611249
    23  H    2.733158   2.855102   5.970891   5.364594   4.221465
    24  H    5.107583   4.906868   7.618246   6.714302   5.658644
    25  C    5.350161   4.607470   7.417164   6.968978   5.995761
    26  C    5.149410   4.119618   6.264715   5.763440   4.902818
    27  C    4.008071   2.832963   5.120644   4.571302   3.593536
    28  C    2.771757   1.818241   5.382525   4.890626   3.698748
    29  C    3.135181   2.757945   6.693249   6.272095   5.065476
    30  C    4.503277   4.068094   7.601383   7.185139   6.063210
    31  H    6.401652   5.693063   8.327621   7.896895   6.987091
    32  H    6.099642   4.981620   6.422694   5.917473   5.253503
    33  H    4.322107   2.993992   4.257288   3.627151   2.805792
    34  H    2.737776   2.853687   7.146533   6.772953   5.519324
    35  H    5.109810   4.905969   8.616508   8.233106   7.088679
                    6          7          8          9         10
     6  C    0.000000
     7  C    1.398619   0.000000
     8  C    2.418162   1.391169   0.000000
     9  H    3.876489   3.395114   2.152317   0.000000
    10  H    3.400028   3.872658   3.398696   2.480232   0.000000
    11  H    2.160540   3.405035   3.874885   4.288789   2.468051
    12  H    2.153421   1.085995   2.152770   4.293922   4.958563
    13  H    3.400955   2.148909   1.085567   2.481098   4.296422
    14  C    5.380227   6.686503   7.593214   8.320308   6.422099
    15  C    4.888874   6.269039   7.181161   7.892350   5.914361
    16  C    3.697665   5.064715   6.062002   6.985003   5.250462
    17  C    2.903019   4.162051   5.282297   6.488425   5.131562
    18  C    3.680159   4.777382   5.839921   7.012095   5.717444
    19  C    4.876683   6.040419   6.996326   7.918545   6.334832
    20  H    6.414208   7.718653   8.570193   9.165107   7.159575
    21  H    5.670328   7.066704   7.912366   8.465064   6.334514
    22  H    3.747515   5.076532   6.031272   6.913201   5.199982
    23  H    3.706618   4.542933   5.618555   6.955647   6.009447
    24  H    5.651703   6.703111   7.611961   8.508272   7.020478
    25  C    5.446723   6.018981   6.991053   8.312191   7.590692
    26  C    4.560682   5.188537   6.010514   7.116099   6.317732
    27  C    3.192386   3.947816   4.856453   6.055627   5.214905
    28  C    2.904004   3.681899   4.879001   6.416727   5.671963
    29  C    4.165435   4.785724   6.049595   7.726072   7.068248
    30  C    5.285890   5.848862   7.006882   8.579410   7.914783
    31  H    6.491117   7.018096   7.926635   9.173636   8.468982
    32  H    5.131214   5.714490   6.332678   7.160477   6.339553
    33  H    2.741026   3.540346   4.222777   5.144427   4.198419
    34  H    4.490459   5.045399   6.393432   8.204326   7.618050
    35  H    6.248397   6.755256   7.949490   9.599808   8.980362
                   11         12         13         14         15
    11  H    0.000000
    12  H    4.301459   0.000000
    13  H    4.960412   2.477927   0.000000
    14  C    4.263216   7.138243   8.606326   0.000000
    15  C    3.626565   6.769752   8.228648   1.392918   0.000000
    16  C    2.802279   5.518921   7.087696   2.412607   1.392222
    17  C    2.744767   4.486012   6.243975   2.790675   2.417571
    18  C    3.551084   5.034007   6.743630   2.411487   2.787196
    19  C    4.233474   6.381377   7.935823   1.393483   2.414143
    20  H    5.150420   8.195244   9.588212   1.085787   2.151460
    21  H    4.194211   7.617053   8.978116   2.153612   1.085568
    22  H    2.867879   5.549223   7.048217   3.394303   2.147735
    23  H    4.081333   4.644407   6.409722   3.397121   3.873146
    24  H    5.106757   6.995235   8.496079   2.153918   3.398498
    25  C    5.941995   5.976233   7.626585   7.406234   6.257232
    26  C    4.867250   5.362774   6.714768   6.969853   5.765544
    27  C    3.616200   4.216000   5.654935   6.001571   4.908739
    28  C    3.748056   3.707839   5.654177   5.442787   4.558234
    29  C    5.073549   4.553175   6.714328   6.000982   5.175065
    30  C    6.028423   5.629207   7.625040   6.971230   5.995862
    31  H    6.912772   6.961820   8.518084   8.299543   7.107453
    32  H    5.205520   6.004191   7.016955   7.597358   6.324693
    33  H    2.879035   4.067996   5.093731   5.959157   4.882492
    34  H    5.544564   4.659420   7.010313   5.950751   5.343869
    35  H    7.043820   6.424200   8.513455   7.599377   6.694682
                   16         17         18         19         20
    16  C    0.000000
    17  C    1.398091   0.000000
    18  C    2.417288   1.398673   0.000000
    19  C    2.788638   2.418136   1.391165   0.000000
    20  H    3.395957   3.876461   3.395150   2.152336   0.000000
    21  H    2.149066   3.400037   3.872751   3.398715   2.480205
    22  H    1.086359   2.160480   3.405090   3.874919   4.288880
    23  H    3.400222   2.153663   1.086017   2.152670   4.293862
    24  H    3.874188   3.400969   2.148932   1.085564   2.481027
    25  C    5.116816   5.377721   6.684178   7.589791   8.315288
    26  C    4.574120   4.892211   6.272298   7.185207   7.897576
    27  C    3.599171   3.703390   5.069964   6.068423   6.993062
    28  C    3.191277   2.901931   4.161465   5.281345   6.486896
    29  C    3.938753   3.671191   4.769355   5.829643   6.998834
    30  C    4.847378   4.868818   6.032919   6.986195   7.904771
    31  H    6.051274   6.411434   7.715923   8.566147   9.159132
    32  H    5.220999   5.676569   7.072817   7.920397   8.476071
    33  H    3.628667   3.759603   5.087542   6.045053   6.930842
    34  H    4.203127   3.692419   4.529330   5.601566   6.934629
    35  H    5.642568   5.640681   6.692019   7.596859   8.487708
                   21         22         23         24         25
    21  H    0.000000
    22  H    2.468226   0.000000
    23  H    4.958678   4.301641   0.000000
    24  H    4.296378   4.960444   2.477802   0.000000
    25  C    6.416216   4.258553   7.137159   8.603158   0.000000
    26  C    5.920230   3.631633   6.772409   8.232569   1.392879
    27  C    5.259497   2.811007   5.522925   7.093781   2.412701
    28  C    5.129441   2.742224   4.486256   6.243304   2.790789
    29  C    5.702817   3.538274   5.029142   6.734203   2.411424
    30  C    6.319539   4.221248   6.376759   7.926290   1.393535
    31  H    7.152783   5.145551   8.193827   9.584365   1.085775
    32  H    6.347207   4.204461   7.621579   8.985846   2.153565
    33  H    5.220027   2.886882   5.557095   7.061142   3.394246
    34  H    5.987751   4.064010   4.635462   6.393851   3.397039
    35  H    6.998535   5.090713   6.987996   8.481549   2.154037
                   26         27         28         29         30
    26  C    0.000000
    27  C    1.392315   0.000000
    28  C    2.417602   1.398045   0.000000
    29  C    2.787045   2.417184   1.398697   0.000000
    30  C    2.414113   2.788680   2.418219   1.391087   0.000000
    31  H    2.151477   3.396075   3.876564   3.395061   2.152348
    32  H    1.085571   2.149127   3.400046   3.872604   3.398698
    33  H    2.147649   1.086316   2.160542   3.405064   3.874916
    34  H    3.872983   3.400084   2.153606   1.086003   2.152542
    35  H    3.398521   3.874238   3.401011   2.148837   1.085571
                   31         32         33         34         35
    31  H    0.000000
    32  H    2.480234   0.000000
    33  H    4.288826   2.468055   0.000000
    34  H    4.293745   4.958519   4.301620   0.000000
    35  H    2.481140   4.296436   4.960450   2.477602   0.000000
 Stoichiometry    C18H15OP
 Framework group  C1[X(C18H15OP)]
 Deg. of freedom    99
 Full point group                 C1      NOp   1
 Largest Abelian subgroup         C1      NOp   1
 Largest concise Abelian subgroup C1      NOp   1
                         Standard orientation:                         
 ---------------------------------------------------------------------
 Center     Atomic      Atomic             Coordinates (Angstroms)
 Number     Number       Type             X           Y           Z
 ---------------------------------------------------------------------
      1          8           0       -0.002575    0.000087    2.454538
      2         15           0       -0.001471    0.000721    0.952013
      3          6           0       -4.227921    0.669751   -0.756232
      4          6           0       -3.325147   -0.106678   -1.479026
      5          6           0       -2.046471   -0.336597   -0.978599
      6          6           0       -1.663273    0.217128    0.246655
      7          6           0       -2.575757    0.991320    0.970626
      8          6           0       -3.854070    1.216163    0.469915
      9          1           0       -5.225897    0.844879   -1.146473
     10          1           0       -3.617827   -0.539648   -2.430507
     11          1           0       -1.352522   -0.953398   -1.542545
     12          1           0       -2.284552    1.406280    1.931040
     13          1           0       -4.559311    1.815240    1.037539
     14          6           0        1.532294   -3.992896   -0.758776
     15          6           0        1.754913   -2.822056   -1.479744
     16          6           0        1.315043   -1.600119   -0.978081
     17          6           0        0.642776   -1.546295    0.246591
     18          6           0        0.426959   -2.724467    0.968822
     19          6           0        0.870965   -3.943548    0.466786
     20          1           0        1.879218   -4.944466   -1.150044
     21          1           0        2.277151   -2.858120   -2.430756
     22          1           0        1.503234   -0.689986   -1.540592
     23          1           0       -0.078874   -2.680956    1.928859
     24          1           0        0.703477   -4.854572    1.032855
     25          6           0        2.699283    3.320819   -0.754345
     26          6           0        1.566927    2.940415   -1.470708
     27          6           0        0.725360    1.950409   -0.970515
     28          6           0        1.018531    1.331206    0.248160
     29          6           0        2.153976    1.721221    0.965798
     30          6           0        2.991020    2.713199    0.465338
     31          1           0        3.352552    4.095387   -1.144460
     32          1           0        1.334124    3.418627   -2.417059
     33          1           0       -0.162222    1.668026   -1.529568
     34          1           0        2.372349    1.253375    1.921222
     35          1           0        3.869323    3.013978    1.027994
 ---------------------------------------------------------------------
 Rotational constants (GHZ):           0.3272155           0.3263954           0.2102900
 Electric field and nuclear coordinate derivatives read from checkpoint file.
 Rotating derivatives to standard orientation.
 Full mass-weighted force constant matrix:
 Low frequencies ---   -8.1068   -0.0019   -0.0015   -0.0014    8.2725   10.6923
 Low frequencies ---   19.3412   26.0046   32.4651
 Diagonal vibrational polarizability:
       63.0850836      55.7303468      20.9375846
 Harmonic frequencies (cm**-1), IR intensities (KM/Mole), Raman scattering
 activities (A**4/AMU), depolarization ratios for plane and unpolarized
 incident light, reduced masses (AMU), force constants (mDyne/A),
 and normal coordinates:
                      1                      2                      3
                      A                      A                      A
 Frequencies --     18.0365                25.9684                32.1566
 Red. masses --      3.8865                 3.8862                 3.7403
 Frc consts  --      0.0007                 0.0015                 0.0023
 IR Inten    --      0.2268                 0.1950                 0.1789
  Atom  AN      X      Y      Z        X      Y      Z        X      Y      Z
     1   8    -0.05  -0.03  -0.00     0.02  -0.05  -0.01    -0.01   0.01  -0.02
     2  15    -0.03  -0.01  -0.00     0.01  -0.03  -0.01    -0.00   0.01  -0.02
     3   6    -0.00   0.05  -0.05     0.02   0.06   0.01    -0.02   0.00   0.03
     4   6    -0.02   0.01  -0.02    -0.04  -0.06   0.07     0.03   0.16  -0.08
     5   6    -0.03  -0.01  -0.01    -0.05  -0.10   0.06     0.04   0.16  -0.09
     6   6    -0.02   0.00  -0.02     0.01  -0.01   0.00    -0.00   0.01  -0.01
     7   6    -0.01   0.04  -0.05     0.07   0.12  -0.05    -0.06  -0.15   0.09
     8   6     0.00   0.07  -0.06     0.08   0.16  -0.05    -0.07  -0.15   0.11
     9   1     0.00   0.07  -0.06     0.02   0.09   0.01    -0.03   0.00   0.04
    10   1    -0.03  -0.01  -0.02    -0.09  -0.13   0.11     0.07   0.28  -0.14
    11   1    -0.04  -0.04   0.00    -0.10  -0.19   0.11     0.08   0.28  -0.17
    12   1    -0.00   0.06  -0.05     0.12   0.19  -0.10    -0.09  -0.27   0.15
    13   1     0.01   0.10  -0.08     0.13   0.26  -0.09    -0.11  -0.28   0.19
    14   6     0.07   0.02   0.02    -0.00  -0.02  -0.04    -0.01  -0.02   0.03
    15   6    -0.13  -0.00  -0.08    -0.06  -0.03  -0.07    -0.09  -0.04  -0.03
    16   6    -0.17  -0.01  -0.09    -0.06  -0.03  -0.06    -0.08  -0.03  -0.05
    17   6    -0.00  -0.00   0.00     0.01  -0.03  -0.02    -0.01   0.00  -0.01
    18   6     0.20   0.02   0.10     0.06  -0.02   0.00     0.07   0.02   0.05
    19   6     0.24   0.03   0.11     0.06  -0.02  -0.01     0.07   0.01   0.07
    20   1     0.10   0.02   0.03    -0.01  -0.02  -0.05    -0.01  -0.02   0.04
    21   1    -0.26  -0.02  -0.14    -0.11  -0.03  -0.09    -0.15  -0.06  -0.06
    22   1    -0.32  -0.03  -0.16    -0.10  -0.03  -0.08    -0.13  -0.05  -0.09
    23   1     0.33   0.04   0.17     0.11  -0.02   0.03     0.13   0.05   0.08
    24   1     0.39   0.05   0.19     0.10  -0.01   0.02     0.13   0.03   0.12
    25   6     0.02  -0.04   0.03    -0.05   0.04   0.05     0.04  -0.01  -0.00
    26   6    -0.04   0.05   0.07     0.06  -0.09  -0.05     0.10  -0.08  -0.07
    27   6    -0.05   0.06   0.06     0.08  -0.12  -0.06     0.09  -0.07  -0.07
    28   6    -0.02  -0.01   0.02    -0.00  -0.01   0.01     0.01   0.00  -0.02
    29   6     0.04  -0.10  -0.03    -0.11   0.12   0.10    -0.06   0.07   0.05
    30   6     0.06  -0.11  -0.02    -0.13   0.15   0.12    -0.04   0.07   0.06
    31   1     0.03  -0.05   0.03    -0.07   0.07   0.06     0.05  -0.02   0.00
    32   1    -0.07   0.11   0.11     0.12  -0.18  -0.11     0.16  -0.14  -0.11
    33   1    -0.10   0.13   0.10     0.15  -0.22  -0.13     0.13  -0.12  -0.12
    34   1     0.07  -0.16  -0.06    -0.18   0.21   0.16    -0.12   0.13   0.09
    35   1     0.10  -0.18  -0.05    -0.22   0.26   0.19    -0.10   0.12   0.11
                      4                      5                      6
                      A                      A                      A
 Frequencies --     52.0827                52.4672                76.0128
 Red. masses --      5.1814                 5.1599                 5.1046
 Frc consts  --      0.0083                 0.0084                 0.0174
 IR Inten    --      0.3015                 0.3137                 1.0118
  Atom  AN      X      Y      Z        X      Y      Z        X      Y      Z
     1   8    -0.04  -0.07   0.00    -0.07   0.04   0.00     0.00   0.00   0.13
     2  15    -0.06  -0.05   0.00    -0.05   0.06   0.00     0.00  -0.00   0.13
     3   6    -0.02   0.21   0.02    -0.11  -0.16   0.07     0.12   0.04  -0.14
     4   6    -0.06   0.18  -0.00    -0.10  -0.16   0.08     0.16   0.02  -0.07
     5   6    -0.08   0.07   0.00    -0.07  -0.06   0.04     0.11  -0.02   0.05
     6   6    -0.06  -0.00   0.03    -0.05   0.04  -0.01     0.01  -0.05   0.09
     7   6    -0.02   0.02   0.06    -0.06   0.04  -0.02    -0.03  -0.04   0.02
     8   6     0.00   0.13   0.05    -0.09  -0.05   0.01     0.02  -0.00  -0.09
     9   1     0.00   0.30   0.01    -0.14  -0.24   0.10     0.16   0.08  -0.23
    10   1    -0.07   0.24  -0.03    -0.12  -0.24   0.12     0.24   0.05  -0.11
    11   1    -0.10   0.06  -0.02    -0.07  -0.07   0.06     0.14  -0.03   0.09
    12   1    -0.00  -0.04   0.08    -0.04   0.11  -0.06    -0.11  -0.06   0.05
    13   1     0.03   0.15   0.07    -0.09  -0.05   0.00    -0.02   0.01  -0.15
    14   6     0.25   0.04   0.05     0.05   0.12  -0.06    -0.09   0.08  -0.14
    15   6     0.23   0.06   0.08     0.03   0.13  -0.03    -0.10   0.12  -0.07
    16   6     0.09   0.03   0.04    -0.01   0.11  -0.02    -0.03   0.10   0.05
    17   6    -0.02  -0.03  -0.02    -0.02   0.08  -0.02     0.03   0.03   0.09
    18   6    -0.01  -0.05  -0.05     0.00   0.06  -0.04     0.05  -0.01   0.02
    19   6     0.13  -0.01  -0.02     0.04   0.08  -0.06    -0.01   0.01  -0.09
    20   1     0.37   0.07   0.08     0.08   0.13  -0.07    -0.15   0.10  -0.23
    21   1     0.33   0.11   0.13     0.03   0.17  -0.03    -0.16   0.18  -0.10
    22   1     0.09   0.04   0.06    -0.03   0.13   0.00    -0.05   0.13   0.09
    23   1    -0.09  -0.09  -0.09    -0.00   0.03  -0.05     0.10  -0.07   0.05
    24   1     0.14  -0.03  -0.04     0.06   0.06  -0.08     0.00  -0.02  -0.15
    25   6    -0.03  -0.11  -0.07     0.20  -0.17  -0.02    -0.03  -0.11  -0.14
    26   6    -0.03  -0.12  -0.06     0.20  -0.13  -0.05    -0.06  -0.15  -0.07
    27   6    -0.05  -0.08  -0.03     0.10  -0.02  -0.02    -0.07  -0.08   0.04
    28   6    -0.07  -0.05  -0.01    -0.00   0.03   0.03    -0.05   0.01   0.09
    29   6    -0.06  -0.04  -0.01    -0.01  -0.00   0.07    -0.02   0.05   0.02
    30   6    -0.05  -0.07  -0.05     0.09  -0.10   0.04    -0.02  -0.01  -0.09
    31   1    -0.01  -0.14  -0.10     0.28  -0.25  -0.05    -0.02  -0.17  -0.23
    32   1    -0.02  -0.15  -0.08     0.29  -0.18  -0.09    -0.08  -0.22  -0.11
    33   1    -0.05  -0.09  -0.02     0.11  -0.00  -0.04    -0.09  -0.11   0.09
    34   1    -0.07  -0.01   0.00    -0.09   0.04   0.10     0.00   0.12   0.05
    35   1    -0.04  -0.06  -0.05     0.09  -0.13   0.06     0.01   0.02  -0.14
                      7                      8                      9
                      A                      A                      A
 Frequencies --    177.8010               180.0992               181.5634
 Red. masses --      5.7647                 5.7884                 4.7777
 Frc consts  --      0.1074                 0.1106                 0.0928
 IR Inten    --      8.1630                 8.2892                 1.5299
  Atom  AN      X      Y      Z        X      Y      Z        X      Y      Z
     1   8     0.06   0.33   0.01     0.33  -0.08   0.01    -0.09  -0.08   0.04
     2  15    -0.02   0.00   0.01     0.00   0.02   0.01     0.00  -0.00   0.04
     3   6     0.00   0.03  -0.03     0.04  -0.02  -0.12    -0.04  -0.14   0.04
     4   6     0.00   0.00   0.00     0.11  -0.03   0.00     0.04  -0.01   0.00
     5   6    -0.02  -0.03   0.04     0.05  -0.01   0.15     0.08   0.16  -0.04
     6   6    -0.03  -0.03   0.04    -0.06   0.03   0.17     0.06   0.20  -0.05
     7   6    -0.04  -0.03   0.03    -0.14   0.03   0.07     0.02   0.17  -0.06
     8   6    -0.02   0.00  -0.01    -0.10  -0.01  -0.08    -0.04  -0.01  -0.02
     9   1     0.02   0.06  -0.06     0.08  -0.02  -0.23    -0.10  -0.32   0.10
    10   1     0.02   0.01  -0.01     0.23  -0.06  -0.02     0.06  -0.08   0.03
    11   1    -0.02  -0.05   0.05     0.10  -0.02   0.23     0.13   0.22  -0.05
    12   1    -0.05  -0.03   0.03    -0.24   0.07   0.08    -0.00   0.23  -0.08
    13   1    -0.02   0.02  -0.02    -0.17  -0.00  -0.17    -0.09  -0.08  -0.01
    14   6     0.05   0.05  -0.09     0.11   0.01   0.10     0.10   0.02   0.01
    15   6    -0.03   0.11  -0.00     0.00  -0.03  -0.00    -0.01   0.04   0.00
    16   6    -0.08   0.04   0.12    -0.14  -0.03  -0.12    -0.12  -0.01  -0.00
    17   6    -0.06  -0.07   0.13    -0.16   0.01  -0.14    -0.13  -0.05  -0.01
    18   6    -0.01  -0.14   0.04    -0.15   0.03  -0.09    -0.09  -0.07  -0.03
    19   6     0.06  -0.08  -0.07    -0.00   0.04   0.03     0.03  -0.04  -0.02
    20   1     0.09   0.09  -0.16     0.27   0.02   0.22     0.22   0.06   0.04
    21   1    -0.05   0.22  -0.01     0.06  -0.06   0.03     0.02   0.09   0.02
    22   1    -0.12   0.09   0.18    -0.19  -0.05  -0.18    -0.17   0.01   0.00
    23   1    -0.01  -0.26   0.04    -0.19   0.06  -0.12    -0.12  -0.12  -0.04
    24   1     0.12  -0.13  -0.14     0.04   0.06   0.09     0.10  -0.05  -0.03
    25   6    -0.05   0.09   0.12     0.03  -0.00   0.03    -0.09   0.07  -0.03
    26   6     0.05   0.04   0.00     0.04   0.03   0.00    -0.07  -0.06   0.00
    27   6     0.10  -0.08  -0.15     0.00   0.04  -0.03     0.05  -0.13   0.06
    28   6     0.06  -0.14  -0.17    -0.03   0.02  -0.04     0.14  -0.09   0.06
    29   6     0.02  -0.16  -0.10    -0.04  -0.01  -0.01     0.15  -0.01  -0.01
    30   6    -0.03  -0.04   0.05    -0.01  -0.02   0.03     0.03   0.08  -0.06
    31   1    -0.12   0.22   0.26     0.06  -0.01   0.05    -0.20   0.15  -0.05
    32   1     0.06   0.12   0.04     0.07   0.05   0.00    -0.16  -0.10   0.01
    33   1     0.15  -0.10  -0.22     0.01   0.06  -0.05     0.05  -0.20   0.10
    34   1    -0.00  -0.22  -0.13    -0.08  -0.02  -0.01     0.25   0.02  -0.02
    35   1    -0.09  -0.03   0.13    -0.01  -0.05   0.05     0.03   0.17  -0.10
                     10                     11                     12
                      A                      A                      A
 Frequencies --    252.4600               253.4044               255.7559
 Red. masses --      4.7751                 4.7632                 5.8592
 Frc consts  --      0.1793                 0.1802                 0.2258
 IR Inten    --      4.2269                 4.3925                 0.5530
  Atom  AN      X      Y      Z        X      Y      Z        X      Y      Z
     1   8     0.01  -0.13  -0.01     0.14   0.01  -0.00    -0.01   0.03  -0.04
     2  15     0.00  -0.00  -0.01     0.00   0.00  -0.00    -0.00  -0.00  -0.04
     3   6    -0.04   0.03  -0.05    -0.06  -0.14   0.04     0.14  -0.06   0.11
     4   6    -0.02   0.00   0.00     0.04   0.03   0.00     0.10  -0.02   0.01
     5   6    -0.04  -0.00   0.05     0.08   0.19  -0.01     0.13  -0.01  -0.08
     6   6    -0.05   0.01   0.05     0.01   0.17   0.01     0.12  -0.03  -0.08
     7   6    -0.09  -0.00   0.03    -0.01   0.21  -0.05     0.22  -0.01  -0.01
     8   6    -0.08   0.01  -0.03    -0.06   0.03  -0.03     0.20  -0.03   0.07
     9   1    -0.01   0.06  -0.10    -0.12  -0.34   0.11     0.11  -0.10   0.19
    10   1     0.01  -0.01  -0.00     0.09  -0.02   0.01     0.03  -0.00   0.02
    11   1    -0.03  -0.02   0.08     0.14   0.26  -0.02     0.12   0.00  -0.11
    12   1    -0.14  -0.00   0.04    -0.04   0.30  -0.08     0.30  -0.03  -0.03
    13   1    -0.09   0.01  -0.05    -0.11  -0.01  -0.05     0.22  -0.04   0.10
    14   6    -0.12   0.06   0.02    -0.08  -0.07  -0.07     0.02   0.14   0.10
    15   6     0.02   0.02   0.00     0.04  -0.05  -0.00    -0.04   0.10   0.01
    16   6     0.14   0.08  -0.03     0.13  -0.03   0.06    -0.10   0.10  -0.06
    17   6     0.11   0.12  -0.05     0.09  -0.02   0.04    -0.06   0.08  -0.05
    18   6     0.09   0.19   0.03     0.14  -0.03   0.05    -0.12   0.13  -0.02
    19   6    -0.04   0.14   0.06     0.03  -0.05  -0.02    -0.06   0.13   0.05
    20   1    -0.27   0.01   0.01    -0.22  -0.09  -0.15     0.11   0.14   0.17
    21   1     0.02  -0.06   0.00     0.02  -0.04  -0.01    -0.03   0.06   0.02
    22   1     0.21   0.05  -0.04     0.18  -0.03   0.08    -0.13   0.09  -0.08
    23   1     0.13   0.28   0.04     0.19  -0.03   0.07    -0.16   0.17  -0.04
    24   1    -0.09   0.17   0.09     0.00  -0.05  -0.03    -0.04   0.14   0.07
    25   6    -0.12   0.08   0.09    -0.02  -0.10   0.04    -0.09  -0.10   0.08
    26   6    -0.02  -0.07   0.00    -0.03  -0.01  -0.00    -0.06  -0.06   0.01
    27   6     0.09  -0.18  -0.06    -0.10   0.03  -0.05    -0.08  -0.06  -0.05
    28   6     0.08  -0.12  -0.03    -0.12  -0.00  -0.06    -0.09  -0.06  -0.06
    29   6     0.11  -0.16  -0.06    -0.15  -0.06   0.00    -0.12  -0.13   0.00
    30   6    -0.00  -0.03   0.00    -0.09  -0.10   0.05    -0.10  -0.13   0.06
    31   1    -0.26   0.25   0.19     0.04  -0.14   0.07    -0.08  -0.08   0.13
    32   1    -0.05  -0.06   0.02     0.04   0.03   0.00    -0.01  -0.02   0.02
    33   1     0.12  -0.26  -0.08    -0.09   0.07  -0.07    -0.07  -0.06  -0.07
    34   1     0.17  -0.22  -0.10    -0.23  -0.09   0.00    -0.18  -0.18  -0.01
    35   1    -0.02   0.01   0.01    -0.10  -0.14   0.09    -0.11  -0.14   0.09
                     13                     14                     15
                      A                      A                      A
 Frequencies --    300.2184               300.8562               410.8596
 Red. masses --      7.2496                 7.2055                 2.9045
 Frc consts  --      0.3850                 0.3843                 0.2889
 IR Inten    --      6.9157                 6.7050                 0.0734
  Atom  AN      X      Y      Z        X      Y      Z        X      Y      Z
     1   8     0.41   0.01   0.00    -0.01   0.40  -0.00    -0.00   0.01  -0.01
     2  15     0.07  -0.02   0.00     0.02   0.07  -0.00    -0.00   0.01  -0.01
     3   6    -0.16   0.02  -0.01    -0.01   0.02  -0.02     0.01   0.01  -0.00
     4   6    -0.20   0.05  -0.10    -0.01   0.01   0.00     0.02   0.03  -0.02
     5   6    -0.15  -0.01  -0.20    -0.01  -0.00   0.03    -0.01  -0.04   0.03
     6   6     0.00  -0.08  -0.17    -0.01   0.01   0.02     0.00   0.01  -0.00
     7   6     0.03  -0.05  -0.17    -0.03   0.00   0.01     0.01   0.03  -0.01
     8   6    -0.02  -0.02  -0.04    -0.03  -0.00  -0.00    -0.01  -0.04   0.03
     9   1    -0.20   0.03   0.09    -0.00   0.03  -0.04     0.02   0.02  -0.01
    10   1    -0.26   0.10  -0.10     0.01   0.01  -0.00     0.04   0.07  -0.04
    11   1    -0.23  -0.01  -0.30    -0.01  -0.01   0.03    -0.03  -0.10   0.06
    12   1     0.09  -0.04  -0.19    -0.05   0.01   0.01     0.03   0.07  -0.03
    13   1     0.07  -0.01   0.05    -0.04  -0.01  -0.01    -0.04  -0.09   0.05
    14   6    -0.03   0.09   0.02     0.06  -0.12   0.00    -0.00  -0.00  -0.00
    15   6    -0.03   0.10   0.05     0.05  -0.17  -0.09     0.15   0.02   0.08
    16   6    -0.04   0.07   0.08     0.07  -0.10  -0.18    -0.15  -0.02  -0.08
    17   6    -0.02  -0.01   0.07     0.06   0.05  -0.16    -0.01  -0.00   0.00
    18   6    -0.03   0.00   0.08     0.02   0.07  -0.15     0.15   0.02   0.08
    19   6    -0.03   0.03   0.03     0.01   0.01  -0.03    -0.15  -0.02  -0.08
    20   1    -0.02   0.11  -0.00     0.07  -0.15   0.10    -0.00  -0.00  -0.01
    21   1    -0.02   0.13   0.05     0.05  -0.24  -0.09     0.33   0.05   0.18
    22   1    -0.07   0.10   0.12     0.11  -0.16  -0.27    -0.34  -0.05  -0.18
    23   1    -0.01  -0.01   0.08    -0.01   0.11  -0.17     0.34   0.05   0.18
    24   1    -0.01  -0.00  -0.01    -0.04   0.08   0.05    -0.32  -0.05  -0.18
    25   6    -0.03  -0.06  -0.01    -0.10  -0.11   0.02    -0.00  -0.01  -0.00
    26   6    -0.06  -0.07   0.05    -0.13  -0.13   0.08     0.05  -0.07  -0.05
    27   6    -0.02  -0.06   0.12    -0.06  -0.12   0.16    -0.06   0.07   0.06
    28   6     0.05  -0.02   0.10     0.05  -0.03   0.14     0.01  -0.00   0.00
    29   6     0.05   0.02   0.09     0.05  -0.02   0.14     0.06  -0.07  -0.04
    30   6     0.02   0.01   0.02    -0.00  -0.04   0.04    -0.06   0.07   0.05
    31   1    -0.04  -0.09  -0.08    -0.13  -0.12  -0.05    -0.00  -0.01  -0.00
    32   1    -0.11  -0.10   0.05    -0.18  -0.15   0.09     0.11  -0.15  -0.10
    33   1    -0.05  -0.09   0.18    -0.09  -0.18   0.24    -0.13   0.16   0.12
    34   1     0.07   0.06   0.10     0.06   0.03   0.16     0.13  -0.16  -0.10
    35   1     0.04   0.06  -0.04     0.03   0.03  -0.04    -0.12   0.16   0.11
                     16                     17                     18
                      A                      A                      A
 Frequencies --    411.4248               411.6258               413.6396
 Red. masses --      2.9638                 5.6493                 2.9219
 Frc consts  --      0.2956                 0.5640                 0.2945
 IR Inten    --      0.0820                 0.5101                 0.1624
  Atom  AN      X      Y      Z        X      Y      Z        X      Y      Z
     1   8     0.01   0.00   0.03    -0.01   0.00   0.22     0.00   0.00  -0.01
     2  15     0.01   0.00   0.03    -0.00   0.00   0.20     0.00   0.00  -0.01
     3   6    -0.02  -0.01   0.01    -0.10  -0.06   0.05     0.00  -0.00  -0.00
     4   6    -0.06  -0.11   0.06    -0.05   0.10  -0.07    -0.04  -0.12   0.07
     5   6     0.04   0.12  -0.08    -0.04  -0.00  -0.08     0.05   0.12  -0.06
     6   6    -0.00  -0.02  -0.00    -0.00  -0.14  -0.01     0.00   0.01   0.00
     7   6    -0.04  -0.12   0.05     0.06   0.03  -0.12    -0.05  -0.12   0.07
     8   6     0.05   0.12  -0.08     0.02   0.01  -0.02     0.05   0.11  -0.07
     9   1    -0.03  -0.02   0.02    -0.15  -0.15   0.14     0.00  -0.00  -0.00
    10   1    -0.11  -0.23   0.13    -0.04   0.20  -0.12    -0.09  -0.25   0.14
    11   1     0.10   0.28  -0.18    -0.08   0.01  -0.15     0.10   0.26  -0.14
    12   1    -0.09  -0.25   0.12     0.11   0.14  -0.18    -0.10  -0.26   0.15
    13   1     0.12   0.27  -0.15     0.08   0.04   0.02     0.10   0.25  -0.14
    14   6     0.02  -0.01   0.01     0.11  -0.06   0.05    -0.00   0.00  -0.00
    15   6    -0.04  -0.02  -0.03     0.01  -0.08  -0.03     0.09   0.02   0.05
    16   6     0.03  -0.00   0.00    -0.04  -0.04  -0.12    -0.09  -0.01  -0.05
    17   6     0.02   0.01   0.00     0.12   0.07  -0.01    -0.01  -0.00   0.00
    18   6    -0.04  -0.00  -0.04     0.01   0.04  -0.09     0.09   0.01   0.05
    19   6     0.03   0.00   0.01    -0.08  -0.00  -0.06    -0.09  -0.01  -0.05
    20   1     0.04  -0.01   0.03     0.20  -0.06   0.14     0.00   0.00  -0.00
    21   1    -0.10  -0.03  -0.06    -0.02  -0.11  -0.04     0.20   0.04   0.11
    22   1     0.07  -0.00   0.01    -0.12  -0.10  -0.23    -0.20  -0.03  -0.10
    23   1    -0.10  -0.01  -0.07    -0.02   0.04  -0.10     0.21   0.03   0.11
    24   1     0.05   0.02   0.04    -0.22   0.03  -0.06    -0.19  -0.03  -0.10
    25   6    -0.00   0.01   0.01    -0.01   0.12   0.05    -0.00  -0.00  -0.00
    26   6     0.08  -0.10  -0.07     0.07   0.04  -0.03    -0.06   0.07   0.05
    27   6    -0.07   0.10   0.05     0.06  -0.02  -0.12     0.06  -0.08  -0.05
    28   6    -0.02   0.01  -0.00    -0.12   0.07  -0.00     0.01  -0.00   0.00
    29   6     0.07  -0.10  -0.08    -0.04  -0.01  -0.09    -0.06   0.08   0.06
    30   6    -0.08   0.09   0.06     0.04  -0.07  -0.06     0.06  -0.08  -0.05
    31   1    -0.00   0.02   0.02    -0.05   0.21   0.15    -0.00  -0.00  -0.00
    32   1     0.18  -0.21  -0.15     0.11   0.04  -0.05    -0.14   0.16   0.12
    33   1    -0.16   0.22   0.13     0.14  -0.06  -0.23     0.13  -0.17  -0.11
    34   1     0.17  -0.23  -0.16    -0.02  -0.05  -0.11    -0.14   0.18   0.12
    35   1    -0.16   0.19   0.14     0.09  -0.20  -0.06     0.13  -0.16  -0.11
                     19                     20                     21
                      A                      A                      A
 Frequencies --    465.0914               465.6278               505.7866
 Red. masses --      5.1090                 5.1019                 4.5077
 Frc consts  --      0.6511                 0.6517                 0.6794
 IR Inten    --     26.6947                26.8677                15.7621
  Atom  AN      X      Y      Z        X      Y      Z        X      Y      Z
     1   8     0.02  -0.10  -0.00    -0.10  -0.02  -0.00    -0.00   0.00   0.15
     2  15     0.06   0.18  -0.00     0.18  -0.05  -0.00     0.00  -0.00   0.13
     3   6     0.05   0.15  -0.08    -0.08   0.04  -0.07     0.01   0.11  -0.06
     4   6    -0.05  -0.09   0.05    -0.04   0.01   0.03    -0.06  -0.06   0.03
     5   6    -0.02  -0.04   0.00    -0.04   0.04   0.07    -0.02  -0.02  -0.04
     6   6     0.10   0.20  -0.14     0.06   0.06   0.02     0.09   0.14  -0.12
     7   6    -0.00  -0.05  -0.00    -0.05   0.01  -0.02     0.03  -0.04  -0.04
     8   6    -0.03  -0.10   0.05    -0.07  -0.03  -0.03    -0.01  -0.08   0.03
     9   1     0.10   0.30  -0.15    -0.07   0.06  -0.10     0.04   0.20  -0.07
    10   1    -0.12  -0.24   0.14     0.02  -0.05   0.04    -0.13  -0.20   0.12
    11   1    -0.08  -0.18   0.07    -0.08  -0.01   0.07    -0.09  -0.14  -0.00
    12   1    -0.05  -0.20   0.08    -0.14   0.02   0.01    -0.01  -0.16   0.02
    13   1    -0.08  -0.25   0.15    -0.08  -0.07   0.01    -0.03  -0.22   0.15
    14   6     0.08  -0.07  -0.02     0.13   0.08   0.10    -0.10  -0.04  -0.05
    15   6    -0.04  -0.04   0.00    -0.09   0.02  -0.06     0.08  -0.02   0.03
    16   6    -0.03  -0.05   0.06    -0.03   0.02  -0.04     0.03  -0.00  -0.04
    17   6     0.03   0.03   0.09     0.24   0.00   0.11    -0.16   0.01  -0.12
    18   6    -0.01  -0.05  -0.01    -0.05   0.00   0.01     0.02   0.04  -0.04
    19   6     0.01  -0.05  -0.05    -0.12   0.00  -0.03     0.07   0.03   0.03
    20   1     0.13  -0.05  -0.02     0.28   0.10   0.18    -0.18  -0.06  -0.07
    21   1    -0.10   0.03  -0.03    -0.25  -0.03  -0.14     0.23  -0.02   0.11
    22   1    -0.06  -0.06   0.02    -0.19   0.02  -0.10     0.16  -0.01  -0.00
    23   1    -0.05  -0.14  -0.03    -0.20   0.02  -0.07     0.15   0.07   0.02
    24   1    -0.04  -0.06  -0.07    -0.28  -0.04  -0.14     0.20   0.08   0.15
    25   6    -0.12   0.01   0.10     0.05  -0.12  -0.04     0.09  -0.07  -0.06
    26   6    -0.00  -0.07  -0.05    -0.06   0.06   0.03    -0.02   0.08   0.03
    27   6    -0.03  -0.03  -0.06    -0.05   0.03  -0.03    -0.01   0.02  -0.04
    28   6    -0.08   0.17   0.05     0.09  -0.11  -0.13     0.07  -0.15  -0.12
    29   6    -0.01  -0.05   0.01    -0.05   0.00   0.01    -0.05  -0.00  -0.04
    30   6     0.02  -0.11   0.00    -0.06   0.02   0.06    -0.07   0.05   0.03
    31   1    -0.18   0.10   0.17     0.13  -0.21  -0.08     0.15  -0.13  -0.08
    32   1     0.12  -0.12  -0.11    -0.10   0.19   0.10    -0.10   0.22   0.12
    33   1     0.02  -0.14  -0.09    -0.11   0.10   0.03    -0.07   0.15  -0.00
    34   1    -0.00  -0.17  -0.05    -0.16   0.07   0.06    -0.14   0.10   0.03
    35   1     0.11  -0.19  -0.09    -0.14   0.11   0.13    -0.17   0.14   0.15
                     22                     23                     24
                      A                      A                      A
 Frequencies --    556.3321               556.5260               634.5849
 Red. masses --      6.1134                 6.1373                 6.4443
 Frc consts  --      1.1148                 1.1199                 1.5290
 IR Inten    --    198.3848               198.6901                 0.3978
  Atom  AN      X      Y      Z        X      Y      Z        X      Y      Z
     1   8    -0.14   0.02   0.00    -0.02  -0.14  -0.00     0.00   0.00  -0.00
     2  15     0.25  -0.00   0.00     0.00   0.26   0.00     0.00  -0.01  -0.00
     3   6    -0.15  -0.04  -0.03    -0.03  -0.10   0.08    -0.04   0.08   0.10
     4   6    -0.03   0.08   0.02     0.03   0.08  -0.05     0.16   0.08   0.27
     5   6    -0.04   0.04   0.09    -0.01  -0.06  -0.02     0.24  -0.14  -0.08
     6   6     0.09  -0.10   0.11    -0.08  -0.19   0.07     0.04  -0.07  -0.10
     7   6     0.00  -0.05  -0.04    -0.00  -0.04  -0.01    -0.15  -0.08  -0.24
     8   6     0.00   0.00  -0.09     0.04   0.08  -0.03    -0.26   0.15   0.09
     9   1    -0.15  -0.05  -0.02    -0.04  -0.13   0.10     0.04  -0.13  -0.20
    10   1     0.12   0.13  -0.05     0.07   0.30  -0.16     0.02   0.14   0.29
    11   1    -0.08   0.10  -0.03     0.05   0.08  -0.11     0.13  -0.16  -0.19
    12   1    -0.08   0.09  -0.08     0.08   0.10  -0.09    -0.03  -0.14  -0.25
    13   1     0.10   0.12  -0.09     0.13   0.28  -0.13    -0.14   0.17   0.22
    14   6    -0.14   0.03  -0.05     0.04  -0.11  -0.06     0.01   0.04  -0.04
    15   6     0.10   0.04   0.03    -0.01  -0.05   0.04     0.07  -0.03  -0.12
    16   6    -0.04   0.00  -0.03    -0.04  -0.06   0.09     0.00  -0.11   0.02
    17   6    -0.20  -0.09  -0.12    -0.06   0.09   0.06    -0.02  -0.04   0.03
    18   6    -0.05  -0.03   0.03     0.02   0.01  -0.03    -0.06   0.03   0.11
    19   6     0.08   0.01   0.07     0.04   0.00  -0.07    -0.00   0.12  -0.03
    20   1    -0.17   0.03  -0.08     0.04  -0.11  -0.07    -0.04  -0.03   0.09
    21   1     0.34   0.06   0.17    -0.01   0.08   0.04     0.07   0.01  -0.12
    22   1     0.11   0.06   0.11     0.00  -0.10   0.03    -0.03  -0.07   0.08
    23   1     0.13   0.04   0.12     0.03  -0.10  -0.02    -0.06  -0.01   0.11
    24   1     0.34   0.01   0.16     0.02   0.04  -0.02     0.04   0.07  -0.08
    25   6    -0.08  -0.01   0.08    -0.00  -0.16  -0.02    -0.01   0.01  -0.02
    26   6     0.00  -0.05  -0.05    -0.10   0.05   0.01     0.01   0.03  -0.04
    27   6    -0.07   0.03  -0.06    -0.02  -0.03  -0.07     0.04   0.02   0.02
    28   6    -0.04   0.15   0.01     0.18  -0.06  -0.14     0.00  -0.00   0.02
    29   6    -0.01   0.01   0.01     0.05  -0.03   0.04    -0.01  -0.02   0.04
    30   6     0.04  -0.06   0.02    -0.02   0.04   0.09    -0.04  -0.03  -0.02
    31   1    -0.09   0.01   0.10     0.01  -0.18  -0.03     0.02   0.00   0.03
    32   1     0.16  -0.09  -0.12    -0.16   0.25   0.13    -0.01  -0.00  -0.05
    33   1    -0.02  -0.08  -0.08    -0.13   0.03   0.08     0.04   0.01   0.03
    34   1    -0.02  -0.12  -0.04    -0.12   0.04   0.12     0.02  -0.01   0.04
    35   1     0.12  -0.15  -0.06    -0.13   0.25   0.15    -0.03  -0.02  -0.04
                     25                     26                     27
                      A                      A                      A
 Frequencies --    635.2021               636.1520               705.3381
 Red. masses --      6.4450                 6.4409                 6.3042
 Frc consts  --      1.5321                 1.5357                 1.8479
 IR Inten    --      0.3508                 0.1059                 2.1373
  Atom  AN      X      Y      Z        X      Y      Z        X      Y      Z
     1   8     0.00  -0.00   0.01     0.00  -0.00  -0.02    -0.00   0.00   0.09
     2  15    -0.01  -0.00   0.01    -0.01   0.00  -0.01     0.00   0.00   0.05
     3   6     0.02  -0.02  -0.03     0.00   0.02   0.04     0.16  -0.03   0.07
     4   6    -0.05  -0.03  -0.09     0.05   0.02   0.08    -0.00  -0.07  -0.15
     5   6    -0.07   0.04   0.02     0.08  -0.04  -0.03    -0.02  -0.08  -0.14
     6   6    -0.02   0.03   0.02    -0.00  -0.02  -0.04    -0.15   0.04  -0.07
     7   6     0.05   0.03   0.08    -0.05  -0.02  -0.07    -0.07   0.08   0.09
     8   6     0.08  -0.05  -0.02    -0.08   0.05   0.04    -0.06   0.10   0.10
     9   1    -0.01   0.04   0.07     0.03  -0.04  -0.06     0.14  -0.07   0.10
    10   1    -0.02  -0.06  -0.09    -0.00   0.04   0.08    -0.22  -0.01  -0.11
    11   1    -0.03   0.05   0.06     0.05  -0.05  -0.06     0.07  -0.10  -0.01
    12   1     0.02   0.04   0.08    -0.00  -0.04  -0.07     0.06  -0.03   0.10
    13   1     0.03  -0.07  -0.06    -0.06   0.05   0.06    -0.22   0.04  -0.03
    14   6     0.05   0.06  -0.10    -0.02  -0.02   0.04    -0.05   0.16   0.07
    15   6     0.14  -0.09  -0.25    -0.06   0.04   0.10     0.06   0.03  -0.14
    16   6     0.00  -0.26   0.08     0.00   0.10  -0.03     0.08   0.03  -0.14
    17   6    -0.04  -0.06   0.10     0.02   0.02  -0.04     0.04  -0.15  -0.07
    18   6    -0.13   0.09   0.23     0.05  -0.04  -0.09    -0.03  -0.10   0.09
    19   6     0.00   0.29  -0.09    -0.00  -0.11   0.03    -0.05  -0.10   0.10
    20   1    -0.08  -0.10   0.19     0.03   0.04  -0.07    -0.01   0.16   0.10
    21   1     0.12   0.05  -0.27    -0.06  -0.02   0.10     0.11  -0.18  -0.11
    22   1    -0.06  -0.19   0.18     0.02   0.07  -0.07     0.05   0.11  -0.01
    23   1    -0.13  -0.05   0.23     0.05   0.02  -0.09    -0.00   0.06   0.10
    24   1     0.06   0.20  -0.21    -0.04  -0.08   0.07     0.07  -0.21  -0.03
    25   6     0.05   0.01   0.04     0.08  -0.01   0.10    -0.11  -0.12   0.07
    26   6     0.00  -0.08   0.13    -0.01  -0.18   0.26    -0.05   0.03  -0.14
    27   6    -0.11  -0.06  -0.03    -0.24  -0.14  -0.08    -0.06   0.06  -0.13
    28   6    -0.05  -0.01  -0.04    -0.08   0.01  -0.10     0.11   0.11  -0.07
    29   6    -0.00   0.08  -0.12     0.01   0.17  -0.24     0.10   0.03   0.09
    30   6     0.11   0.07   0.03     0.26   0.14   0.09     0.12   0.00   0.10
    31   1    -0.05   0.02  -0.10    -0.14   0.03  -0.20    -0.14  -0.08   0.10
    32   1     0.05  -0.05   0.13     0.11  -0.09   0.28     0.10   0.19  -0.11
    33   1    -0.09  -0.01  -0.09    -0.20  -0.03  -0.19    -0.13  -0.00  -0.00
    34   1    -0.05   0.05  -0.12    -0.11   0.10  -0.24    -0.06  -0.02   0.11
    35   1     0.09   0.01   0.10     0.22   0.04   0.21     0.14   0.17  -0.03
                     28                     29                     30
                      A                      A                      A
 Frequencies --    717.1728               717.4342               719.4331
 Red. masses --      2.0657                 2.0806                 2.2046
 Frc consts  --      0.6260                 0.6310                 0.6723
 IR Inten    --     46.6540                46.2289                23.1586
  Atom  AN      X      Y      Z        X      Y      Z        X      Y      Z
     1   8    -0.00   0.00   0.00    -0.00  -0.00  -0.00     0.00   0.00   0.00
     2  15    -0.01   0.01   0.00    -0.01  -0.01  -0.00     0.00   0.00   0.00
     3   6    -0.01   0.01  -0.01     0.01   0.05  -0.03    -0.03  -0.05   0.03
     4   6    -0.01  -0.02   0.02    -0.04  -0.09   0.06     0.04   0.09  -0.05
     5   6     0.01   0.02   0.00     0.02   0.06  -0.03    -0.02  -0.06   0.04
     6   6     0.00  -0.02   0.02    -0.03  -0.08   0.05     0.04   0.08  -0.04
     7   6     0.01   0.01  -0.02     0.03   0.05  -0.04    -0.02  -0.07   0.03
     8   6    -0.00  -0.03   0.00    -0.03  -0.09   0.05     0.04   0.09  -0.06
     9   1     0.02   0.09  -0.05     0.13   0.34  -0.19    -0.14  -0.33   0.18
    10   1     0.03   0.02  -0.00     0.04   0.07  -0.04    -0.01  -0.05   0.04
    11   1     0.02   0.08  -0.05     0.12   0.30  -0.17    -0.12  -0.28   0.17
    12   1     0.03   0.08  -0.05     0.11   0.30  -0.17    -0.11  -0.30   0.16
    13   1     0.03   0.02  -0.01     0.04   0.06  -0.03    -0.01  -0.06   0.03
    14   6     0.06   0.02   0.04     0.03  -0.01   0.01     0.05  -0.00   0.02
    15   6    -0.11  -0.01  -0.07    -0.04  -0.01  -0.01    -0.08  -0.01  -0.03
    16   6     0.07   0.01   0.03     0.02   0.00   0.02     0.05   0.01   0.03
    17   6    -0.09  -0.02  -0.06    -0.04   0.01  -0.01    -0.07  -0.00  -0.03
    18   6     0.07   0.00   0.04     0.03   0.01   0.01     0.05   0.01   0.02
    19   6    -0.11  -0.03  -0.05    -0.04   0.00  -0.03    -0.07  -0.00  -0.04
    20   1     0.41   0.07   0.22     0.15   0.01   0.07     0.26   0.03   0.14
    21   1     0.09   0.00   0.04     0.02   0.02   0.02     0.03   0.01   0.03
    22   1     0.36   0.06   0.20     0.13   0.01   0.07     0.22   0.03   0.12
    23   1     0.37   0.06   0.20     0.13   0.02   0.06     0.24   0.04   0.12
    24   1     0.09  -0.01   0.04     0.02   0.02   0.02     0.04   0.02   0.03
    25   6     0.02  -0.04  -0.02    -0.04   0.03   0.03    -0.02   0.04   0.02
    26   6    -0.05   0.06   0.04     0.05  -0.07  -0.06     0.05  -0.06  -0.03
    27   6     0.03  -0.04  -0.03    -0.04   0.05   0.02    -0.03   0.04   0.04
    28   6    -0.04   0.05   0.04     0.06  -0.05  -0.05     0.03  -0.06  -0.03
    29   6     0.03  -0.04  -0.02    -0.02   0.05   0.04    -0.04   0.04   0.02
    30   6    -0.04   0.06   0.04     0.07  -0.07  -0.04     0.04  -0.06  -0.05
    31   1     0.17  -0.23  -0.15    -0.21   0.25   0.18    -0.16   0.22   0.14
    32   1     0.04  -0.04  -0.03    -0.04   0.07   0.03    -0.03   0.02   0.03
    33   1     0.15  -0.20  -0.14    -0.19   0.23   0.16    -0.13   0.19   0.13
    34   1     0.16  -0.20  -0.13    -0.19   0.23   0.16    -0.16   0.19   0.12
    35   1     0.04  -0.04  -0.03    -0.03   0.07   0.03    -0.04   0.02   0.03
                     31                     32                     33
                      A                      A                      A
 Frequencies --    740.7110               740.8948               770.6701
 Red. masses --      4.5497                 4.5355                 1.5310
 Frc consts  --      1.4707                 1.4669                 0.5357
 IR Inten    --    113.3648               114.6089                24.4665
  Atom  AN      X      Y      Z        X      Y      Z        X      Y      Z
     1   8    -0.02   0.02  -0.00    -0.02  -0.02  -0.00     0.00   0.00  -0.01
     2  15     0.11  -0.11   0.00     0.11   0.11  -0.00     0.00  -0.00  -0.01
     3   6     0.14  -0.02   0.05     0.08  -0.05   0.06     0.02   0.05  -0.03
     4   6    -0.01  -0.07  -0.11    -0.02  -0.06  -0.09     0.00   0.00  -0.00
     5   6    -0.01  -0.05  -0.11    -0.02  -0.07  -0.07     0.02   0.04  -0.02
     6   6    -0.11   0.02  -0.04    -0.07   0.03  -0.04    -0.03  -0.07   0.04
     7   6    -0.08   0.08   0.07    -0.06   0.03   0.07     0.01   0.04  -0.02
     8   6    -0.09   0.09   0.09    -0.06   0.05   0.07    -0.00   0.00  -0.00
     9   1     0.13  -0.06   0.04     0.17   0.18  -0.07    -0.09  -0.22   0.12
    10   1    -0.19  -0.02  -0.08    -0.05   0.24  -0.21    -0.11  -0.27   0.16
    11   1     0.06  -0.06  -0.02     0.10   0.11  -0.11    -0.04  -0.09   0.06
    12   1     0.03   0.01   0.08     0.08   0.16  -0.03    -0.04  -0.09   0.05
    13   1    -0.24   0.03  -0.02    -0.06   0.27  -0.16    -0.11  -0.27   0.15
    14   6     0.03  -0.15  -0.07    -0.05   0.06   0.01    -0.05  -0.01  -0.03
    15   6    -0.08  -0.03   0.13     0.02   0.02  -0.05    -0.00  -0.00   0.00
    16   6    -0.09  -0.02   0.11     0.00   0.01  -0.06    -0.05  -0.01  -0.02
    17   6    -0.03   0.12   0.05     0.03  -0.05  -0.01     0.07   0.01   0.04
    18   6     0.01   0.11  -0.10    -0.03  -0.06   0.03    -0.04  -0.01  -0.02
    19   6     0.03   0.13  -0.11    -0.02  -0.07   0.05    -0.00  -0.00  -0.00
    20   1     0.22  -0.12   0.04     0.11   0.09   0.07     0.23   0.03   0.12
    21   1     0.10   0.22   0.23     0.19  -0.05   0.04     0.28   0.05   0.15
    22   1     0.11  -0.07   0.10     0.08   0.05   0.03     0.09   0.01   0.06
    23   1     0.16  -0.00  -0.01     0.06   0.02   0.08     0.09   0.01   0.05
    24   1     0.13   0.27   0.15     0.19  -0.10   0.06     0.28   0.04   0.15
    25   6    -0.03   0.01   0.03     0.12   0.12  -0.07     0.03  -0.04  -0.03
    26   6    -0.01   0.02  -0.02     0.07  -0.06   0.14     0.00  -0.00  -0.00
    27   6    -0.02   0.03  -0.00     0.06  -0.06   0.13     0.03  -0.04  -0.02
    28   6     0.02  -0.00  -0.01    -0.09  -0.10   0.06    -0.05   0.06   0.04
    29   6    -0.01   0.02   0.02    -0.12  -0.04  -0.10     0.03  -0.04  -0.02
    30   6     0.00   0.00   0.01    -0.14  -0.04  -0.12     0.00   0.00  -0.00
    31   1     0.12  -0.17  -0.08     0.06   0.20   0.00    -0.15   0.19   0.13
    32   1     0.16  -0.16  -0.15    -0.19  -0.11   0.18    -0.19   0.24   0.17
    33   1     0.07  -0.11  -0.08     0.05   0.10   0.08    -0.06   0.08   0.06
    34   1     0.08  -0.11  -0.06    -0.04   0.10  -0.05    -0.06   0.08   0.05
    35   1     0.15  -0.17  -0.13    -0.26  -0.12   0.11    -0.18   0.24   0.16
                     34                     35                     36
                      A                      A                      A
 Frequencies --    780.4371               780.8278               884.7667
 Red. masses --      1.8518                 1.8385                 1.2477
 Frc consts  --      0.6645                 0.6604                 0.5754
 IR Inten    --      3.0820                 3.3729                 0.1815
  Atom  AN      X      Y      Z        X      Y      Z        X      Y      Z
     1   8    -0.00   0.02   0.00     0.02   0.00  -0.00    -0.00   0.00   0.00
     2  15     0.03  -0.04   0.00    -0.04  -0.03  -0.00    -0.00  -0.00  -0.00
     3   6     0.00  -0.04   0.03    -0.05  -0.06   0.03    -0.00  -0.00   0.00
     4   6    -0.00  -0.01  -0.01     0.01   0.01   0.03     0.00   0.01  -0.00
     5   6    -0.01  -0.04   0.01    -0.02  -0.04   0.05     0.00   0.01  -0.00
     6   6     0.02   0.06  -0.04     0.05   0.10  -0.06     0.00   0.00  -0.00
     7   6    -0.02  -0.02   0.02    -0.01  -0.06   0.02    -0.00  -0.01   0.00
     8   6    -0.01   0.01   0.01     0.02  -0.02  -0.02    -0.00  -0.01   0.00
     9   1     0.08   0.15  -0.09     0.09   0.28  -0.17     0.00   0.01  -0.00
    10   1     0.06   0.19  -0.12     0.18   0.34  -0.17    -0.02  -0.05   0.03
    11   1     0.03   0.05  -0.04     0.04   0.11  -0.05    -0.02  -0.05   0.03
    12   1     0.02   0.05  -0.02     0.02   0.08  -0.05     0.02   0.05  -0.03
    13   1     0.04   0.20  -0.11     0.17   0.32  -0.18     0.02   0.06  -0.03
    14   6     0.05  -0.02   0.01    -0.07  -0.01  -0.04    -0.00  -0.00  -0.00
    15   6    -0.01  -0.00   0.03     0.00  -0.00  -0.00     0.05   0.01   0.03
    16   6     0.02   0.00   0.04    -0.06  -0.01  -0.03     0.05   0.01   0.03
    17   6    -0.07   0.00  -0.03     0.11   0.02   0.06     0.00   0.00   0.00
    18   6     0.04   0.03   0.01    -0.05  -0.00  -0.03    -0.05  -0.01  -0.03
    19   6     0.01   0.03  -0.02     0.00   0.00  -0.00    -0.05  -0.01  -0.03
    20   1    -0.18  -0.05  -0.11     0.28   0.04   0.15     0.01   0.00   0.00
    21   1    -0.25   0.01  -0.10     0.35   0.05   0.19    -0.34  -0.04  -0.18
    22   1    -0.07  -0.02  -0.02     0.10   0.01   0.05    -0.34  -0.05  -0.19
    23   1    -0.05  -0.02  -0.04     0.08   0.01   0.04     0.33   0.06   0.17
    24   1    -0.24   0.02  -0.11     0.34   0.06   0.18     0.35   0.05   0.19
    25   6     0.04  -0.07  -0.04    -0.01  -0.02   0.01    -0.00   0.00   0.00
    26   6    -0.00   0.01  -0.02    -0.01   0.01  -0.02     0.02  -0.03  -0.02
    27   6     0.03  -0.04  -0.05    -0.01   0.01  -0.02     0.02  -0.03  -0.02
    28   6    -0.07   0.10   0.07     0.01   0.01  -0.00     0.00  -0.00  -0.00
    29   6     0.05  -0.05  -0.03     0.02   0.00   0.01    -0.02   0.03   0.02
    30   6     0.01   0.00   0.01     0.03   0.01   0.02    -0.02   0.03   0.02
    31   1    -0.20   0.24   0.18    -0.03  -0.01   0.01     0.01  -0.01  -0.00
    32   1    -0.23   0.34   0.21     0.01   0.04  -0.01    -0.16   0.21   0.14
    33   1    -0.07   0.09   0.06    -0.01   0.00  -0.01    -0.16   0.20   0.14
    34   1    -0.06   0.07   0.05    -0.00  -0.00   0.01     0.17  -0.20  -0.13
    35   1    -0.23   0.32   0.21     0.03   0.05   0.00     0.17  -0.21  -0.14
                     37                     38                     39
                      A                      A                      A
 Frequencies --    885.3228               887.6666               963.0203
 Red. masses --      1.2469                 1.2443                 1.3387
 Frc consts  --      0.5758                 0.5777                 0.7315
 IR Inten    --      0.2052                 0.0953                 0.2391
  Atom  AN      X      Y      Z        X      Y      Z        X      Y      Z
     1   8    -0.00  -0.00   0.00    -0.00  -0.00  -0.00     0.00  -0.00  -0.00
     2  15     0.00  -0.00  -0.00     0.00  -0.00   0.00    -0.01   0.00  -0.00
     3   6     0.00  -0.00   0.00    -0.00  -0.00   0.00     0.00   0.01  -0.01
     4   6     0.01   0.03  -0.02     0.02   0.05  -0.03     0.00   0.00   0.00
     5   6     0.02   0.04  -0.02     0.02   0.04  -0.03    -0.00  -0.01   0.01
     6   6     0.00   0.00  -0.00     0.00   0.00  -0.00    -0.00   0.01  -0.00
     7   6    -0.01  -0.04   0.02    -0.02  -0.05   0.03    -0.00  -0.01   0.01
     8   6    -0.01  -0.04   0.02    -0.02  -0.05   0.03     0.00  -0.00  -0.00
     9   1     0.01   0.02  -0.01     0.00   0.01  -0.00    -0.03  -0.07   0.04
    10   1    -0.10  -0.24   0.14    -0.13  -0.32   0.19    -0.00  -0.02   0.01
    11   1    -0.10  -0.25   0.14    -0.12  -0.31   0.18     0.03   0.07  -0.04
    12   1     0.08   0.24  -0.13     0.11   0.32  -0.17     0.02   0.07  -0.03
    13   1     0.10   0.26  -0.14     0.13   0.33  -0.19     0.00  -0.01   0.00
    14   6     0.00  -0.00  -0.00    -0.00  -0.00   0.00     0.07   0.01   0.04
    15   6     0.03   0.00   0.01    -0.03  -0.00  -0.02     0.02   0.00   0.00
    16   6     0.03   0.00   0.02    -0.03  -0.00  -0.02    -0.07  -0.01  -0.04
    17   6     0.00   0.00   0.00    -0.00   0.00  -0.00     0.03   0.01   0.02
    18   6    -0.03  -0.00  -0.01     0.03   0.00   0.02    -0.06  -0.01  -0.03
    19   6    -0.03  -0.00  -0.01     0.03   0.00   0.01     0.00  -0.00   0.00
    20   1     0.00   0.00  -0.00     0.01  -0.00   0.00    -0.38  -0.06  -0.21
[...]
    13   1     0.05  -0.05  -0.04     0.31  -0.26  -0.25     0.16  -0.14  -0.13
    14   6     0.00  -0.01  -0.00    -0.01   0.02   0.01     0.01  -0.04  -0.02
    15   6     0.00   0.00  -0.00    -0.01   0.00   0.02     0.02  -0.00  -0.03
    16   6     0.00   0.00  -0.00    -0.00  -0.01   0.00     0.00   0.02  -0.01
    17   6    -0.00   0.00   0.00     0.00  -0.00  -0.00    -0.00   0.00   0.00
    18   6    -0.00   0.00   0.00     0.01  -0.00  -0.01    -0.01   0.00   0.02
    19   6    -0.00  -0.00   0.00     0.00   0.02  -0.01    -0.01  -0.04   0.02
    20   1    -0.02   0.06   0.02     0.08  -0.23  -0.09    -0.15   0.41   0.17
    21   1    -0.03   0.00   0.05     0.11  -0.01  -0.20    -0.20   0.01   0.36
    22   1    -0.00  -0.02   0.01     0.02   0.09  -0.05    -0.03  -0.16   0.10
    23   1     0.02  -0.00  -0.03    -0.07   0.01   0.14     0.14  -0.01  -0.26
    24   1     0.01   0.05  -0.03    -0.04  -0.22   0.14     0.07   0.40  -0.25
    25   6    -0.03  -0.04   0.02     0.00   0.00  -0.00     0.01   0.01  -0.00
    26   6     0.01  -0.02   0.04    -0.00   0.00  -0.00    -0.00   0.00  -0.01
    27   6     0.02   0.01   0.01    -0.00  -0.00  -0.00    -0.00  -0.00  -0.00
    28   6     0.00   0.00  -0.00    -0.00   0.00  -0.00    -0.00  -0.00   0.00
    29   6    -0.00   0.01  -0.02     0.00  -0.00   0.00     0.00  -0.00   0.00
    30   6    -0.04  -0.01  -0.03     0.00   0.00   0.00     0.01   0.00   0.00
    31   1     0.34   0.40  -0.20    -0.03  -0.03   0.02    -0.06  -0.07   0.03
    32   1    -0.10   0.21  -0.42     0.01  -0.02   0.03     0.02  -0.04   0.07
    33   1    -0.17  -0.06  -0.11     0.01   0.00   0.01     0.03   0.01   0.02
    34   1     0.06  -0.13   0.27    -0.01   0.01  -0.02    -0.01   0.02  -0.05
    35   1     0.43   0.15   0.28    -0.03  -0.01  -0.02    -0.07  -0.02  -0.05

 -------------------
 - Thermochemistry -
 -------------------
 Temperature   263.150 Kelvin.  Pressure   1.00000 Atm.
 Atom     1 has atomic number  8 and mass  15.99491
 Atom     2 has atomic number 15 and mass  30.97376
 Atom     3 has atomic number  6 and mass  12.00000
 Atom     4 has atomic number  6 and mass  12.00000
 Atom     5 has atomic number  6 and mass  12.00000
 Atom     6 has atomic number  6 and mass  12.00000
 Atom     7 has atomic number  6 and mass  12.00000
 Atom     8 has atomic number  6 and mass  12.00000
 Atom     9 has atomic number  1 and mass   1.00783
 Atom    10 has atomic number  1 and mass   1.00783
 Atom    11 has atomic number  1 and mass   1.00783
 Atom    12 has atomic number  1 and mass   1.00783
 Atom    13 has atomic number  1 and mass   1.00783
 Atom    14 has atomic number  6 and mass  12.00000
 Atom    15 has atomic number  6 and mass  12.00000
 Atom    16 has atomic number  6 and mass  12.00000
 Atom    17 has atomic number  6 and mass  12.00000
 Atom    18 has atomic number  6 and mass  12.00000
 Atom    19 has atomic number  6 and mass  12.00000
 Atom    20 has atomic number  1 and mass   1.00783
 Atom    21 has atomic number  1 and mass   1.00783
 Atom    22 has atomic number  1 and mass   1.00783
 Atom    23 has atomic number  1 and mass   1.00783
 Atom    24 has atomic number  1 and mass   1.00783
 Atom    25 has atomic number  6 and mass  12.00000
 Atom    26 has atomic number  6 and mass  12.00000
 Atom    27 has atomic number  6 and mass  12.00000
 Atom    28 has atomic number  6 and mass  12.00000
 Atom    29 has atomic number  6 and mass  12.00000
 Atom    30 has atomic number  6 and mass  12.00000
 Atom    31 has atomic number  1 and mass   1.00783
 Atom    32 has atomic number  1 and mass   1.00783
 Atom    33 has atomic number  1 and mass   1.00783
 Atom    34 has atomic number  1 and mass   1.00783
 Atom    35 has atomic number  1 and mass   1.00783
 Molecular mass:   278.08605 amu.
 Principal axes and moments of inertia in atomic units:
                           1         2         3
     Eigenvalues --  5515.451585529.309098582.15593
           X            0.99993  -0.01215   0.00002
           Y            0.01215   0.99993  -0.00008
           Z           -0.00002   0.00008   1.00000
 This molecule is an asymmetric top.
 Rotational symmetry number  1.
 Warning -- assumption of classical behavior for rotation
           may cause significant error
 Rotational temperatures (Kelvin)      0.01570     0.01566     0.01009
 Rotational constants (GHZ):           0.32722     0.32640     0.21029
 Zero-point vibrational energy     741996.5 (Joules/Mol)
                                  177.34142 (Kcal/Mol)
 Warning -- explicit consideration of  21 degrees of freedom as
           vibrations may cause significant error
 Vibrational temperatures:     25.95    37.36    46.27    74.94    75.49
          (Kelvin)            109.37   255.82   259.12   261.23   363.23
                              364.59   367.98   431.95   432.87   591.14
                              591.95   592.24   595.14   669.16   669.93
                              727.71   800.44   800.72   913.03   913.91
                              915.28  1014.82  1031.85  1032.23  1035.10
                             1065.72  1065.98  1108.82  1122.87  1123.44
                             1272.98  1273.78  1277.15  1385.57  1386.15
                             1388.99  1452.48  1453.22  1455.94  1472.80
                             1473.09  1473.87  1488.83  1489.52  1490.18
                             1534.58  1536.94  1537.53  1618.25  1619.57
                             1619.65  1638.68  1665.70  1666.80  1728.59
                             1729.27  1729.78  1767.75  1769.08  1772.23
                             1774.82  1929.13  1929.39  1929.72  1979.00
                             1980.21  1983.36  2152.87  2153.19  2155.96
                             2229.60  2230.40  2230.61  2396.46  2396.60
                             2397.68  2423.73  2423.84  2423.92  4627.22
                             4628.66  4629.06  4635.17  4637.75  4637.86
                             4644.31  4646.44  4646.66  4655.07  4657.52
                             4657.62  4666.55  4667.85  4668.51
 
 Zero-point correction=                           0.282612 (Hartree/Particle)
 Thermal correction to Energy=                    0.295818
 Thermal correction to Enthalpy=                  0.296651
 Thermal correction to Gibbs Free Energy=         0.242612
 Sum of electronic and zero-point Energies=          -1111.006525
 Sum of electronic and thermal Energies=             -1110.993319
 Sum of electronic and thermal Enthalpies=           -1110.992486
 Sum of electronic and thermal Free Energies=        -1111.046525
 
                     E (Thermal)             CV                S
                      KCal/Mol        Cal/Mol-Kelvin    Cal/Mol-Kelvin
 Total                  185.628             57.057            128.861
 Electronic               0.000              0.000              0.000
 Translational            0.784              2.981             42.146
 Rotational               0.784              2.981             33.553
 Vibrational            184.060             51.096             53.162
 Vibration     1          0.523              1.986              6.591
 Vibration     2          0.524              1.984              5.868
 Vibration     3          0.524              1.982              5.444
 Vibration     4          0.526              1.974              4.490
 Vibration     5          0.527              1.974              4.476
 Vibration     6          0.530              1.959              3.746
 Vibration     7          0.563              1.838              2.120
 Vibration     8          0.565              1.834              2.096
 Vibration     9          0.565              1.832              2.081
 Vibration    10          0.603              1.700              1.497
 Vibration    11          0.604              1.698              1.491
 Vibration    12          0.605              1.693              1.475
 Vibration    13          0.635              1.595              1.211
 Vibration    14          0.636              1.594              1.208
 Vibration    15          0.726              1.327              0.750
 Vibration    16          0.727              1.325              0.748
 Vibration    17          0.727              1.325              0.748
 Vibration    18          0.729              1.320              0.741
 Vibration    19          0.778              1.190              0.594
 Vibration    20          0.779              1.189              0.593
 Vibration    21          0.820              1.090              0.498
                       Q            Log10(Q)             Ln(Q)
 Total Bot       0.366254-126       -126.436218       -291.130151
 Total V=0       0.700539D+21         20.845433         47.998382
 Vib (Bot)       0.571762-141       -141.242785       -325.223531
 Vib (Bot)    1  0.101364D+02          1.005882          2.316129
 Vib (Bot)    2  0.703721D+01          0.847401          1.951212
 Vib (Bot)    3  0.568042D+01          0.754380          1.737024
 Vib (Bot)    4  0.349986D+01          0.544050          1.252722
 Vib (Bot)    5  0.347403D+01          0.540834          1.245316
 Vib (Bot)    6  0.238892D+01          0.378202          0.870843
 Vib (Bot)    7  0.989253D+00         -0.004693         -0.010805
 Vib (Bot)    8  0.975645D+00         -0.010708         -0.024657
 Vib (Bot)    9  0.967149D+00         -0.014507         -0.033403
 Vib (Bot)   10  0.669994D+00         -0.173929         -0.400486
 Vib (Bot)   11  0.667112D+00         -0.175801         -0.404797
 Vib (Bot)   12  0.660024D+00         -0.180440         -0.415479
 Vib (Bot)   13  0.545842D+00         -0.262933         -0.605426
 Vib (Bot)   14  0.544435D+00         -0.264054         -0.608006
 Vib (Bot)   15  0.363715D+00         -0.439239         -1.011386
 Vib (Bot)   16  0.363020D+00         -0.440069         -1.013296
 Vib (Bot)   17  0.362774D+00         -0.440364         -1.013975
 Vib (Bot)   18  0.360318D+00         -0.443314         -1.020768
 Vib (Bot)   19  0.304360D+00         -0.516613         -1.189545
 Vib (Bot)   20  0.303838D+00         -0.517358         -1.191261
 Vib (Bot)   21  0.267756D+00         -0.572261         -1.317679
 Vib (V=0)       0.109362D+07          6.038866         13.905003
 Vib (V=0)    1  0.106487D+02          1.027296          2.365436
 Vib (V=0)    2  0.755495D+01          0.878232          2.022203
 Vib (V=0)    3  0.620238D+01          0.792558          1.824933
 Vib (V=0)    4  0.403539D+01          0.605886          1.395103
 Vib (V=0)    5  0.400983D+01          0.603126          1.388749
 Vib (V=0)    6  0.294069D+01          0.468449          1.078644
 Vib (V=0)    7  0.160843D+01          0.206403          0.475260
 Vib (V=0)    8  0.159630D+01          0.203116          0.467691
 Vib (V=0)    9  0.158875D+01          0.201056          0.462948
 Vib (V=0)   10  0.133600D+01          0.125806          0.289678
 Vib (V=0)   11  0.133369D+01          0.125055          0.287949
 Vib (V=0)   12  0.132803D+01          0.123207          0.283696
 Vib (V=0)   13  0.124023D+01          0.093503          0.215298
 Vib (V=0)   14  0.123920D+01          0.093140          0.214462
 Vib (V=0)   15  0.111829D+01          0.048556          0.111805
 Vib (V=0)   16  0.111789D+01          0.048398          0.111440
 Vib (V=0)   17  0.111774D+01          0.048342          0.111310
 Vib (V=0)   18  0.111630D+01          0.047782          0.110022
 Vib (V=0)   19  0.108535D+01          0.035570          0.081903
 Vib (V=0)   20  0.108508D+01          0.035461          0.081653
 Vib (V=0)   21  0.106718D+01          0.028238          0.065020
 Electronic      0.100000D+01          0.000000          0.000000
 Translational   0.133396D+09          8.125144         18.708836
 Rotational      0.480201D+07          6.681423         15.384544
 ***** Axes restored to original set *****
 -------------------------------------------------------------------
 Center     Atomic                   Forces (Hartrees/Bohr)
 Number     Number              X              Y              Z
 -------------------------------------------------------------------
      1        8          -0.000026479    0.000040448   -0.000039153
      2       15          -0.000011142    0.000016586   -0.000018014
      3        6           0.000001050   -0.000004966   -0.000005687
      4        6          -0.000002946    0.000006878    0.000008856
      5        6          -0.000033349    0.000036208    0.000013804
      6        6           0.000023339   -0.000006150   -0.000029982
      7        6           0.000000946   -0.000026286    0.000024894
      8        6           0.000010939    0.000001517   -0.000014421
      9        1           0.000005717    0.000004057   -0.000005572
     10        1           0.000001420   -0.000002537   -0.000002630
     11        1          -0.000020387    0.000008045    0.000000460
     12        1           0.000017164   -0.000024224   -0.000018526
     13        1          -0.000004234   -0.000000229    0.000001423
     14        6           0.000015668   -0.000000356    0.000002460
     15        6          -0.000013661    0.000002288   -0.000002154
     16        6          -0.000003583   -0.000015359    0.000006081
     17        6           0.000011460   -0.000024177    0.000040187
     18        6           0.000029784    0.000031089   -0.000014390
     19        6          -0.000019570    0.000006080   -0.000005928
     20        1          -0.000001313    0.000004044    0.000002921
     21        1           0.000000642    0.000001174    0.000000719
     22        1           0.000013975   -0.000008446   -0.000013132
     23        1          -0.000008142   -0.000008156   -0.000001104
     24        1           0.000001856   -0.000003307    0.000005448
     25        6          -0.000008115   -0.000021431   -0.000018432
     26        6           0.000005730   -0.000023462    0.000002965
     27        6           0.000040506   -0.000026128    0.000021294
     28        6           0.000010195   -0.000002014    0.000022083
     29        6           0.000012599    0.000027419    0.000030918
     30        6          -0.000019646    0.000018389   -0.000011218
     31        1          -0.000002106    0.000003406   -0.000001780
     32        1          -0.000000560    0.000003281   -0.000000204
     33        1          -0.000004791   -0.000005959   -0.000000963
     34        1          -0.000024399   -0.000007173    0.000013990
     35        1           0.000001431   -0.000000552    0.000004788
 -------------------------------------------------------------------
 Cartesian Forces:  Max     0.000040506 RMS     0.000016058
 FormGI is forming the generalized inverse of G from B-inverse, IUseBI=4.

 ----------------------------------------------------------------------

 Electric dipole moment (input orientation):
 (Debye = 10**-18 statcoulomb cm , SI units = C m)
                  (au)            (Debye)         (10**-30 SI)
   Tot        0.226472D+01      0.575634D+01      0.192011D+02
   x          0.760288D-02      0.193246D-01      0.644599D-01
   y          0.417810D-03      0.106197D-02      0.354234D-02
   z         -0.226471D+01     -0.575631D+01     -0.192010D+02

 Dipole polarizability, Alpha (input orientation).
 (esu units = cm**3 , SI units = C**2 m**2 J**-1)
 Alpha(0;0):
               (au)            (10**-24 esu)      (10**-40 SI)
   iso        0.246485D+03      0.365252D+02      0.406398D+02
   aniso      0.124048D+02      0.183820D+01      0.204527D+01
   xx         0.250418D+03      0.371081D+02      0.412883D+02
   yx         0.451133D+00      0.668510D-01      0.743817D-01
   yy         0.250787D+03      0.371628D+02      0.413492D+02
   zx         0.404639D+00      0.599614D-01      0.667160D-01
   zy        -0.144415D+00     -0.214002D-01     -0.238109D-01
   zz         0.238249D+03      0.353048D+02      0.392819D+02

 ----------------------------------------------------------------------

 Dipole orientation:
     8         -0.00009111         -0.00009497         -4.63834867
    15         -0.00267040          0.00060447         -1.79898658
     6         -3.70477651          7.19433972          1.41865736
     6         -1.77844040          6.03453929          2.78720965
     6         -0.60904797          3.87443384          1.84472645
     6         -1.37462263          2.85676661         -0.47013902
     6         -3.30268179          4.03531680         -1.84093884
     6         -4.46275047          6.19777093         -0.89791318
     1         -4.60970814          8.88280194          2.15362097
     1         -1.17570058          6.81778625          4.58485303
     1          0.90753138          2.99473711          2.91249733
     1         -3.87395599          3.26534594         -3.65545116
     1         -5.95418989          7.10820619         -1.97264897
     6          8.06972702         -0.38753353          1.44031178
     6          6.09886670         -1.47790058          2.80246527
     6          3.64629926         -1.41190177          1.85257678
     6          3.15391771         -0.23960003         -0.46334320
     6          5.14196220          0.84289299         -1.82786104
     6          7.59184822          0.76778247         -0.87726224
     1          9.98222579         -0.44678948          2.18117748
     1          6.47104595         -2.39198060          4.60087735
     1          2.12323420         -2.28665433          2.91538860
     1          4.76612798          1.72310731         -3.64329501
     1          9.12875827          1.60589488         -1.94674546
     6         -4.36728248         -6.80639769          1.42967006
     6         -4.35502728         -4.54761943          2.78097864
     6         -3.07500128         -2.45280317          1.83443983
     6         -1.78858788         -2.61536975         -0.46739923
     6         -1.81626629         -4.88537936         -1.82111799
     6         -3.10250602         -6.97324114         -0.87408702
     1         -5.37181011         -8.43609130          2.16789446
     1         -5.35231099         -4.41059432          4.56844060
     1         -3.09373548         -0.69163104          2.88898889
     1         -0.84610589         -5.00265014         -3.62576671
     1         -3.12227072         -8.72864246         -1.93547798

 Electric dipole moment (dipole orientation):
 (Debye = 10**-18 statcoulomb cm , SI units = C m)
                  (au)            (Debye)         (10**-30 SI)
   Tot        0.226472D+01      0.575634D+01      0.192011D+02
   x          0.000000D+00      0.000000D+00      0.000000D+00
   y          0.000000D+00      0.000000D+00      0.000000D+00
   z          0.226472D+01      0.575634D+01      0.192011D+02

 Dipole polarizability, Alpha (dipole orientation).
 (esu units = cm**3 , SI units = C**2 m**2 J**-1)
 Alpha(0;0):
               (au)            (10**-24 esu)      (10**-40 SI)
   iso        0.246485D+03      0.365252D+02      0.406398D+02
   aniso      0.124048D+02      0.183820D+01      0.204527D+01
   xx         0.250420D+03      0.371085D+02      0.412887D+02
   yx        -0.450712D+00     -0.667887D-01     -0.743124D-01
   yy         0.250787D+03      0.371628D+02      0.413492D+02
   zx        -0.363695D+00     -0.538941D-01     -0.599652D-01
   zy        -0.148243D+00     -0.219673D-01     -0.244419D-01
   zz         0.238246D+03      0.353045D+02      0.392815D+02

 ----------------------------------------------------------------------

 This type of calculation cannot be archived.


 MEMORIES ARE LIKE AN ENGLISH GRAMMER LESSON -
 PRESENT TENSE, AND PAST PERFECT.
 Job cpu time:       0 days  0 hours  0 minutes  2.3 seconds.
 Elapsed time:       0 days  0 hours  0 minutes  0.7 seconds.
 File lengths (MBytes):  RWF=      6 Int=      0 D2E=      0 Chk=     18 Scr=      1
 Normal termination of Gaussian 16 at Sat Apr  4 19:28:30 2020.
