 Entering Gaussian System, Link 0=g16
 Input=pinc.gjf
 Output=pinc.log
 Initial command:
 /apps/cent7/gaussian/g16-A.03/g16-haswell/g16/l1.exe "/scratch/brown/finej/0051_imine_mechanism/ts_631gd/other_complete/Gau-40376.inp" -scrdir="/scratch/brown/finej/0051_imine_mechanism/ts_631gd/other_complete/"
 Entering Link 1 = /apps/cent7/gaussian/g16-A.03/g16-haswell/g16/l1.exe PID=     40377.
  
 Copyright (c) 1988,1990,1992,1993,1995,1998,2003,2009,2016,
            Gaussian, Inc.  All Rights Reserved.
  
 This is part of the Gaussian(R) 16 program.  It is based on
 the Gaussian(R) 09 system (copyright 2009, Gaussian, Inc.),
 the Gaussian(R) 03 system (copyright 2003, Gaussian, Inc.),
 the Gaussian(R) 98 system (copyright 1998, Gaussian, Inc.),
 the Gaussian(R) 94 system (copyright 1995, Gaussian, Inc.),
 the Gaussian 92(TM) system (copyright 1992, Gaussian, Inc.),
 the Gaussian 90(TM) system (copyright 1990, Gaussian, Inc.),
 the Gaussian 88(TM) system (copyright 1988, Gaussian, Inc.),
 the Gaussian 86(TM) system (copyright 1986, Carnegie Mellon
 University), and the Gaussian 82(TM) system (copyright 1983,
 Carnegie Mellon University). Gaussian is a federally registered
 trademark of Gaussian, Inc.
  
 This software contains proprietary and confidential information,
 including trade secrets, belonging to Gaussian, Inc.
  
 This software is provided under written license and may be
 used, copied, transmitted, or stored only in accord with that
 written license.
  
 The following legend is applicable only to US Government
 contracts under FAR:
  
                    RESTRICTED RIGHTS LEGEND
  
 Use, reproduction and disclosure by the US Government is
 subject to restrictions as set forth in subparagraphs (a)
 and (c) of the Commercial Computer Software - Restricted
 Rights clause in FAR 52.227-19.
  
 Gaussian, Inc.
 340 Quinnipiac St., Bldg. 40, Wallingford CT 06492
  
  
 ---------------------------------------------------------------
 Warning -- This program may not be used in any manner that
 competes with the business of Gaussian, Inc. or will provide
 assistance to any competitor of Gaussian, Inc.  The licensee
 of this program is prohibited from giving any competitor of
 Gaussian, Inc. access to this program.  By using this program,
 the user acknowledges that Gaussian, Inc. is engaged in the
 business of creating and licensing software in the field of
 computational chemistry and represents and warrants to the
 licensee that it is not a competitor of Gaussian, Inc. and that
 it will not use this program in any manner prohibited above.
 ---------------------------------------------------------------
  

 Cite this work as:
 Gaussian 16, Revision A.03,
 M. J. Frisch, G. W. Trucks, H. B. Schlegel, G. E. Scuseria, 
 M. A. Robb, J. R. Cheeseman, G. Scalmani, V. Barone, 
 G. A. Petersson, H. Nakatsuji, X. Li, M. Caricato, A. V. Marenich, 
 J. Bloino, B. G. Janesko, R. Gomperts, B. Mennucci, H. P. Hratchian, 
 J. V. Ortiz, A. F. Izmaylov, J. L. Sonnenberg, D. Williams-Young, 
 F. Ding, F. Lipparini, F. Egidi, J. Goings, B. Peng, A. Petrone, 
 T. Henderson, D. Ranasinghe, V. G. Zakrzewski, J. Gao, N. Rega, 
 G. Zheng, W. Liang, M. Hada, M. Ehara, K. Toyota, R. Fukuda, 
 J. Hasegawa, M. Ishida, T. Nakajima, Y. Honda, O. Kitao, H. Nakai, 
 T. Vreven, K. Throssell, J. A. Montgomery, Jr., J. E. Peralta, 
 F. Ogliaro, M. J. Bearpark, J. J. Heyd, E. N. Brothers, K. N. Kudin, 
 V. N. Staroverov, T. A. Keith, R. Kobayashi, J. Normand, 
 K. Raghavachari, A. P. Rendell, J. C. Burant, S. S. Iyengar, 
 J. Tomasi, M. Cossi, J. M. Millam, M. Klene, C. Adamo, R. Cammi, 
 J. W. Ochterski, R. L. Martin, K. Morokuma, O. Farkas, 
 J. B. Foresman, and D. J. Fox, Gaussian, Inc., Wallingford CT, 2016.
 
 ******************************************
 Gaussian 16:  ES64L-G16RevA.03 25-Dec-2016
                 4-Apr-2020 
 ******************************************
 %nprocshared=4
 Will use up to    4 processors via shared memory.
 %mem=1GB
 %oldchk=n_isocyano_triphenylphosphorane.chk
 Copying data from "n_isocyano_triphenylphosphorane.chk" to current chk file "/scratch/brown/finej/0051_imine_mechanism/ts_631gd/other_complete/Gau-40377.chk"
 IOpt=  2 FromEx=T IUOpen= 4 IOptOp= 5 NList=   0 IFRang= 0 IUIn= 4 IUOut= 2.
 ----------------------------------------------------------------------
 # freq=readfc wb97xd/6-31g(d) scrf=solvent=dichloromethane geom=check 
 temperature=263.15
 ----------------------------------------------------------------------
 1/29=2,38=1,112=263150,172=1/1;
 2/12=2,40=1/2;
 7/8=1,25=11/16;
 99/5=2/99;
 -------------------------------
 n isocyano triphenylphosphorane
 -------------------------------
 Structure from the checkpoint file:  "/scratch/brown/finej/0051_imine_mechanism/ts_631gd/other_complete/Gau-40377.chk"
 Charge =  0 Multiplicity = 1
 Redundant internal coordinates found in file.  (old form).
 C,0,-2.0584805682,-0.9337157172,3.2780727945
 N,0,-1.1001525409,-0.5046633937,2.7433576715
 C,0,-0.2592414123,-1.575259731,-0.1793987407
 N,0,0.0314324032,0.000702941,2.234688841
 C,0,-1.1470431409,1.1766761366,-0.1162841739
 C,0,1.7183692959,0.5716791544,0.1877145083
 P,0,0.0540705002,0.0266310289,0.606755903
 C,0,0.7896120645,-2.3413160684,-0.6974762441
 C,0,0.5333626041,-3.6045806471,-1.2214782487
 C,0,-0.7645364883,-4.1094774805,-1.2223108826
 C,0,-1.8117747747,-3.3520941805,-0.7011189319
 C,0,-1.5641232893,-2.0864567658,-0.1819636163
 C,0,-1.6079755035,1.0409954962,-1.4306249716
 C,0,-2.4962155513,1.9756226899,-1.9523759716
 C,0,-2.9334607865,3.0378141854,-1.1633097479
 C,0,-2.4823382247,3.1705313961,0.1479720746
 C,0,-1.5876559935,2.2436361904,0.672657324
 C,0,2.7819801514,0.2407137326,1.0341959237
 C,0,4.0766168539,0.617683933,0.6932686202
 C,0,4.3128018877,1.3171724412,-0.4884041102
 C,0,3.2541156498,1.6460262106,-1.3317903131
 C,0,1.9560054036,1.2758527952,-0.9962918158
 H,0,1.8036753179,-1.9534954041,-0.6973075954
 H,0,1.3484245617,-4.1933210071,-1.6299080704
 H,0,-0.9615128458,-5.0955732877,-1.6313707682
 H,0,-2.8230562914,-3.7456689227,-0.7008774749
 H,0,-2.3854023496,-1.4973148789,0.2150116746
 H,0,-1.280691552,0.2067374548,-2.0443860642
 H,0,-2.8518883483,1.8707664542,-2.9722791688
 H,0,-3.6318032974,3.7620658413,-1.5711237539
 H,0,-2.8287758153,3.9943365753,0.7635735836
 H,0,-1.2345118959,2.3388382722,1.6952428722
 H,0,2.5887678484,-0.2986581805,1.9552751815
 H,0,4.9013100837,0.3651106407,1.3518667699
 H,0,5.3247334592,1.6092232737,-0.7514353779
 H,0,3.4369238083,2.1955561124,-2.2494669911
 H,0,1.1337077443,1.543878714,-1.6527457143
 Recover connectivity data from disk.
                           ----------------------------
                           !    Current Parameters    !
                           ! (Angstroms and Degrees)  !
 --------------------------                            --------------------------
 ! Name  Definition              Value          Derivative Info.                !
 --------------------------------------------------------------------------------
 ! R1    R(1,2)                  1.1783         estimate D2E/DX2                !
 ! R2    R(2,4)                  1.3396         estimate D2E/DX2                !
 ! R3    R(3,7)                  1.8117         estimate D2E/DX2                !
 ! R4    R(3,8)                  1.3983         estimate D2E/DX2                !
 ! R5    R(3,12)                 1.4014         estimate D2E/DX2                !
 ! R6    R(4,7)                  1.6283         estimate D2E/DX2                !
 ! R7    R(5,7)                  1.8133         estimate D2E/DX2                !
 ! R8    R(5,13)                 1.3994         estimate D2E/DX2                !
 ! R9    R(5,17)                 1.3982         estimate D2E/DX2                !
 ! R10   R(6,7)                  1.8007         estimate D2E/DX2                !
 ! R11   R(6,18)                 1.399          estimate D2E/DX2                !
 ! R12   R(6,22)                 1.3979         estimate D2E/DX2                !
 ! R13   R(8,9)                  1.3914         estimate D2E/DX2                !
 ! R14   R(8,23)                 1.0857         estimate D2E/DX2                !
 ! R15   R(9,10)                 1.3926         estimate D2E/DX2                !
 ! R16   R(9,24)                 1.0852         estimate D2E/DX2                !
 ! R17   R(10,11)                1.3935         estimate D2E/DX2                !
 ! R18   R(10,25)                1.0856         estimate D2E/DX2                !
 ! R19   R(11,12)                1.3902         estimate D2E/DX2                !
 ! R20   R(11,26)                1.0852         estimate D2E/DX2                !
 ! R21   R(12,27)                1.0859         estimate D2E/DX2                !
 ! R22   R(13,14)                1.3909         estimate D2E/DX2                !
 ! R23   R(13,28)                1.0862         estimate D2E/DX2                !
 ! R24   R(14,15)                1.3936         estimate D2E/DX2                !
 ! R25   R(14,29)                1.0852         estimate D2E/DX2                !
 ! R26   R(15,16)                1.393          estimate D2E/DX2                !
 ! R27   R(15,30)                1.0856         estimate D2E/DX2                !
 ! R28   R(16,17)                1.391          estimate D2E/DX2                !
 ! R29   R(16,31)                1.0852         estimate D2E/DX2                !
 ! R30   R(17,32)                1.086          estimate D2E/DX2                !
 ! R31   R(18,19)                1.3908         estimate D2E/DX2                !
 ! R32   R(18,33)                1.0847         estimate D2E/DX2                !
 ! R33   R(19,20)                1.3933         estimate D2E/DX2                !
 ! R34   R(19,34)                1.0852         estimate D2E/DX2                !
 ! R35   R(20,21)                1.3929         estimate D2E/DX2                !
 ! R36   R(20,35)                1.0856         estimate D2E/DX2                !
 ! R37   R(21,22)                1.3909         estimate D2E/DX2                !
 ! R38   R(21,36)                1.0851         estimate D2E/DX2                !
 ! R39   R(22,37)                1.0858         estimate D2E/DX2                !
 ! A1    A(7,3,8)              121.0272         estimate D2E/DX2                !
 ! A2    A(7,3,12)             118.9691         estimate D2E/DX2                !
 ! A3    A(8,3,12)             119.86           estimate D2E/DX2                !
 ! A4    A(2,4,7)              113.414          estimate D2E/DX2                !
 ! A5    A(7,5,13)             122.0856         estimate D2E/DX2                !
 ! A6    A(7,5,17)             117.8864         estimate D2E/DX2                !
 ! A7    A(13,5,17)            120.0094         estimate D2E/DX2                !
 ! A8    A(7,6,18)             119.3566         estimate D2E/DX2                !
 ! A9    A(7,6,22)             120.4431         estimate D2E/DX2                !
 ! A10   A(18,6,22)            120.1578         estimate D2E/DX2                !
 ! A11   A(3,7,4)              114.6675         estimate D2E/DX2                !
 ! A12   A(3,7,5)              105.8547         estimate D2E/DX2                !
 ! A13   A(3,7,6)              109.0558         estimate D2E/DX2                !
 ! A14   A(4,7,5)              113.5496         estimate D2E/DX2                !
 ! A15   A(4,7,6)              104.4968         estimate D2E/DX2                !
 ! A16   A(5,7,6)              109.114          estimate D2E/DX2                !
 ! A17   A(3,8,9)              119.9182         estimate D2E/DX2                !
 ! A18   A(3,8,23)             120.3205         estimate D2E/DX2                !
 ! A19   A(9,8,23)             119.7607         estimate D2E/DX2                !
 ! A20   A(8,9,10)             120.0668         estimate D2E/DX2                !
 ! A21   A(8,9,24)             119.7319         estimate D2E/DX2                !
 ! A22   A(10,9,24)            120.2013         estimate D2E/DX2                !
 ! A23   A(9,10,11)            120.2053         estimate D2E/DX2                !
 ! A24   A(9,10,25)            119.9103         estimate D2E/DX2                !
 ! A25   A(11,10,25)           119.8844         estimate D2E/DX2                !
 ! A26   A(10,11,12)           120.0388         estimate D2E/DX2                !
 ! A27   A(10,11,26)           120.2178         estimate D2E/DX2                !
 ! A28   A(12,11,26)           119.7431         estimate D2E/DX2                !
 ! A29   A(3,12,11)            119.9092         estimate D2E/DX2                !
 ! A30   A(3,12,27)            120.3734         estimate D2E/DX2                !
 ! A31   A(11,12,27)           119.7167         estimate D2E/DX2                !
 ! A32   A(5,13,14)            119.8341         estimate D2E/DX2                !
 ! A33   A(5,13,28)            120.3932         estimate D2E/DX2                !
 ! A34   A(14,13,28)           119.7718         estimate D2E/DX2                !
 ! A35   A(13,14,15)           120.0083         estimate D2E/DX2                !
 ! A36   A(13,14,29)           119.795          estimate D2E/DX2                !
 ! A37   A(15,14,29)           120.1955         estimate D2E/DX2                !
 ! A38   A(14,15,16)           120.2644         estimate D2E/DX2                !
 ! A39   A(14,15,30)           119.8432         estimate D2E/DX2                !
 ! A40   A(16,15,30)           119.8919         estimate D2E/DX2                !
 ! A41   A(15,16,17)           119.9911         estimate D2E/DX2                !
 ! A42   A(15,16,31)           120.1933         estimate D2E/DX2                !
 ! A43   A(17,16,31)           119.8154         estimate D2E/DX2                !
 ! A44   A(5,17,16)            119.8902         estimate D2E/DX2                !
 ! A45   A(5,17,32)            119.7169         estimate D2E/DX2                !
 ! A46   A(16,17,32)           120.3911         estimate D2E/DX2                !
 ! A47   A(6,18,19)            119.6848         estimate D2E/DX2                !
 ! A48   A(6,18,33)            119.7341         estimate D2E/DX2                !
 ! A49   A(19,18,33)           120.5782         estimate D2E/DX2                !
 ! A50   A(18,19,20)           120.115          estimate D2E/DX2                !
 ! A51   A(18,19,34)           119.7051         estimate D2E/DX2                !
 ! A52   A(20,19,34)           120.1799         estimate D2E/DX2                !
 ! A53   A(19,20,21)           120.2106         estimate D2E/DX2                !
 ! A54   A(19,20,35)           119.9043         estimate D2E/DX2                !
 ! A55   A(21,20,35)           119.8849         estimate D2E/DX2                !
 ! A56   A(20,21,22)           120.0297         estimate D2E/DX2                !
 ! A57   A(20,21,36)           120.2353         estimate D2E/DX2                !
 ! A58   A(22,21,36)           119.7343         estimate D2E/DX2                !
 ! A59   A(6,22,21)            119.8018         estimate D2E/DX2                !
 ! A60   A(6,22,37)            120.5089         estimate D2E/DX2                !
 ! A61   A(21,22,37)           119.6872         estimate D2E/DX2                !
 ! A62   L(1,2,4,10,-1)        183.5497         estimate D2E/DX2                !
 ! A63   L(1,2,4,10,-2)        183.0578         estimate D2E/DX2                !
 ! D1    D(8,3,7,4)           -101.631          estimate D2E/DX2                !
 ! D2    D(8,3,7,5)            132.3904         estimate D2E/DX2                !
 ! D3    D(8,3,7,6)             15.1173         estimate D2E/DX2                !
 ! D4    D(12,3,7,4)            74.0061         estimate D2E/DX2                !
 ! D5    D(12,3,7,5)           -51.9726         estimate D2E/DX2                !
 ! D6    D(12,3,7,6)          -169.2457         estimate D2E/DX2                !
 ! D7    D(7,3,8,9)            176.0098         estimate D2E/DX2                !
 ! D8    D(7,3,8,23)            -4.2716         estimate D2E/DX2                !
 ! D9    D(12,3,8,9)             0.4113         estimate D2E/DX2                !
 ! D10   D(12,3,8,23)         -179.8702         estimate D2E/DX2                !
 ! D11   D(7,3,12,11)         -175.7841         estimate D2E/DX2                !
 ! D12   D(7,3,12,27)            4.53           estimate D2E/DX2                !
 ! D13   D(8,3,12,11)           -0.0951         estimate D2E/DX2                !
 ! D14   D(8,3,12,27)         -179.7809         estimate D2E/DX2                !
 ! D15   D(2,4,7,3)            -54.7988         estimate D2E/DX2                !
 ! D16   D(2,4,7,5)             67.0792         estimate D2E/DX2                !
 ! D17   D(2,4,7,6)           -174.1285         estimate D2E/DX2                !
 ! D18   D(13,5,7,3)           -31.441          estimate D2E/DX2                !
 ! D19   D(13,5,7,4)          -158.1002         estimate D2E/DX2                !
 ! D20   D(13,5,7,6)            85.793          estimate D2E/DX2                !
 ! D21   D(17,5,7,3)           150.1285         estimate D2E/DX2                !
 ! D22   D(17,5,7,4)            23.4693         estimate D2E/DX2                !
 ! D23   D(17,5,7,6)           -92.6375         estimate D2E/DX2                !
 ! D24   D(7,5,13,14)         -177.8829         estimate D2E/DX2                !
 ! D25   D(7,5,13,28)            2.4696         estimate D2E/DX2                !
 ! D26   D(17,5,13,14)           0.5151         estimate D2E/DX2                !
 ! D27   D(17,5,13,28)        -179.1324         estimate D2E/DX2                !
 ! D28   D(7,5,17,16)          178.3421         estimate D2E/DX2                !
 ! D29   D(7,5,17,32)           -2.1399         estimate D2E/DX2                !
 ! D30   D(13,5,17,16)          -0.1223         estimate D2E/DX2                !
 ! D31   D(13,5,17,32)         179.3957         estimate D2E/DX2                !
 ! D32   D(18,6,7,3)           -91.7246         estimate D2E/DX2                !
 ! D33   D(18,6,7,4)            31.326          estimate D2E/DX2                !
 ! D34   D(18,6,7,5)           153.0862         estimate D2E/DX2                !
 ! D35   D(22,6,7,3)            85.9068         estimate D2E/DX2                !
 ! D36   D(22,6,7,4)          -151.0426         estimate D2E/DX2                !
 ! D37   D(22,6,7,5)           -29.2824         estimate D2E/DX2                !
 ! D38   D(7,6,18,19)          177.7513         estimate D2E/DX2                !
 ! D39   D(7,6,18,33)           -2.8658         estimate D2E/DX2                !
 ! D40   D(22,6,18,19)           0.113          estimate D2E/DX2                !
 ! D41   D(22,6,18,33)         179.4959         estimate D2E/DX2                !
 ! D42   D(7,6,22,21)         -177.553          estimate D2E/DX2                !
 ! D43   D(7,6,22,37)            2.9697         estimate D2E/DX2                !
 ! D44   D(18,6,22,21)           0.0594         estimate D2E/DX2                !
 ! D45   D(18,6,22,37)        -179.4179         estimate D2E/DX2                !
 ! D46   D(3,8,9,10)            -0.4176         estimate D2E/DX2                !
 ! D47   D(3,8,9,24)           179.5187         estimate D2E/DX2                !
 ! D48   D(23,8,9,10)          179.8622         estimate D2E/DX2                !
 ! D49   D(23,8,9,24)           -0.2014         estimate D2E/DX2                !
 ! D50   D(8,9,10,11)            0.1075         estimate D2E/DX2                !
 ! D51   D(8,9,10,25)         -179.9723         estimate D2E/DX2                !
 ! D52   D(24,9,10,11)        -179.8285         estimate D2E/DX2                !
 ! D53   D(24,9,10,25)           0.0916         estimate D2E/DX2                !
 ! D54   D(9,10,11,12)           0.2101         estimate D2E/DX2                !
 ! D55   D(9,10,11,26)        -179.9466         estimate D2E/DX2                !
 ! D56   D(25,10,11,12)       -179.7101         estimate D2E/DX2                !
 ! D57   D(25,10,11,26)          0.1332         estimate D2E/DX2                !
 ! D58   D(10,11,12,3)          -0.215          estimate D2E/DX2                !
 ! D59   D(10,11,12,27)        179.473          estimate D2E/DX2                !
 ! D60   D(26,11,12,3)         179.941          estimate D2E/DX2                !
 ! D61   D(26,11,12,27)         -0.371          estimate D2E/DX2                !
 ! D62   D(5,13,14,15)          -0.52           estimate D2E/DX2                !
 ! D63   D(5,13,14,29)         179.892          estimate D2E/DX2                !
 ! D64   D(28,13,14,15)        179.1297         estimate D2E/DX2                !
 ! D65   D(28,13,14,29)         -0.4584         estimate D2E/DX2                !
 ! D66   D(13,14,15,16)          0.1334         estimate D2E/DX2                !
 ! D67   D(13,14,15,30)       -179.598          estimate D2E/DX2                !
 ! D68   D(29,14,15,16)        179.7199         estimate D2E/DX2                !
 ! D69   D(29,14,15,30)         -0.0116         estimate D2E/DX2                !
 ! D70   D(14,15,16,17)          0.2611         estimate D2E/DX2                !
 ! D71   D(14,15,16,31)       -179.5854         estimate D2E/DX2                !
 ! D72   D(30,15,16,17)        179.9923         estimate D2E/DX2                !
 ! D73   D(30,15,16,31)          0.1459         estimate D2E/DX2                !
 ! D74   D(15,16,17,5)          -0.265          estimate D2E/DX2                !
 ! D75   D(15,16,17,32)       -179.7797         estimate D2E/DX2                !
 ! D76   D(31,16,17,5)         179.5821         estimate D2E/DX2                !
 ! D77   D(31,16,17,32)          0.0673         estimate D2E/DX2                !
 ! D78   D(6,18,19,20)          -0.2426         estimate D2E/DX2                !
 ! D79   D(6,18,19,34)         179.7203         estimate D2E/DX2                !
 ! D80   D(33,18,19,20)       -179.6202         estimate D2E/DX2                !
 ! D81   D(33,18,19,34)          0.3427         estimate D2E/DX2                !
 ! D82   D(18,19,20,21)          0.2009         estimate D2E/DX2                !
 ! D83   D(18,19,20,35)       -179.9653         estimate D2E/DX2                !
 ! D84   D(34,19,20,21)       -179.7618         estimate D2E/DX2                !
 ! D85   D(34,19,20,35)          0.072          estimate D2E/DX2                !
 ! D86   D(19,20,21,22)         -0.0272         estimate D2E/DX2                !
 ! D87   D(19,20,21,36)        179.6619         estimate D2E/DX2                !
 ! D88   D(35,20,21,22)       -179.8611         estimate D2E/DX2                !
 ! D89   D(35,20,21,36)         -0.1719         estimate D2E/DX2                !
 ! D90   D(20,21,22,6)          -0.1022         estimate D2E/DX2                !
 ! D91   D(20,21,22,37)        179.3794         estimate D2E/DX2                !
 ! D92   D(36,21,22,6)        -179.7929         estimate D2E/DX2                !
 ! D93   D(36,21,22,37)         -0.3113         estimate D2E/DX2                !
 --------------------------------------------------------------------------------
                          Input orientation:                          
 ---------------------------------------------------------------------
 Center     Atomic      Atomic             Coordinates (Angstroms)
 Number     Number       Type             X           Y           Z
 ---------------------------------------------------------------------
      1          6           0       -2.058481   -0.933716    3.278073
      2          7           0       -1.100153   -0.504663    2.743358
      3          6           0       -0.259241   -1.575260   -0.179399
      4          7           0        0.031432    0.000703    2.234689
      5          6           0       -1.147043    1.176676   -0.116284
      6          6           0        1.718369    0.571679    0.187715
      7         15           0        0.054071    0.026631    0.606756
      8          6           0        0.789612   -2.341316   -0.697476
      9          6           0        0.533363   -3.604581   -1.221478
     10          6           0       -0.764536   -4.109477   -1.222311
     11          6           0       -1.811775   -3.352094   -0.701119
     12          6           0       -1.564123   -2.086457   -0.181964
     13          6           0       -1.607976    1.040995   -1.430625
     14          6           0       -2.496216    1.975623   -1.952376
     15          6           0       -2.933461    3.037814   -1.163310
     16          6           0       -2.482338    3.170531    0.147972
     17          6           0       -1.587656    2.243636    0.672657
     18          6           0        2.781980    0.240714    1.034196
     19          6           0        4.076617    0.617684    0.693269
     20          6           0        4.312802    1.317172   -0.488404
     21          6           0        3.254116    1.646026   -1.331790
     22          6           0        1.956005    1.275853   -0.996292
     23          1           0        1.803675   -1.953495   -0.697308
     24          1           0        1.348425   -4.193321   -1.629908
     25          1           0       -0.961513   -5.095573   -1.631371
     26          1           0       -2.823056   -3.745669   -0.700877
     27          1           0       -2.385402   -1.497315    0.215012
     28          1           0       -1.280692    0.206737   -2.044386
     29          1           0       -2.851888    1.870766   -2.972279
     30          1           0       -3.631803    3.762066   -1.571124
     31          1           0       -2.828776    3.994337    0.763574
     32          1           0       -1.234512    2.338838    1.695243
     33          1           0        2.588768   -0.298658    1.955275
     34          1           0        4.901310    0.365111    1.351867
     35          1           0        5.324733    1.609223   -0.751435
     36          1           0        3.436924    2.195556   -2.249467
     37          1           0        1.133708    1.543879   -1.652746
 ---------------------------------------------------------------------
                    Distance matrix (angstroms):
                    1          2          3          4          5
     1  C    0.000000
     2  N    1.178303   0.000000
     3  C    3.950057   3.224254   0.000000
     4  N    2.515855   1.339636   2.897580   0.000000
     5  C    4.099528   3.317628   2.892287   2.880762   0.000000
     6  C    5.106968   3.953971   2.941949   2.713277   2.944321
     7  P    3.538513   2.485874   1.811700   1.628297   1.813302
     8  C    5.089004   4.334033   1.398335   3.828509   4.057670
     9  C    5.839275   5.291293   2.415014   5.019472   5.187064
    10  C    5.658022   5.369716   2.786620   5.429364   5.414151
    11  C    4.662980   4.525338   2.416546   4.822616   4.614505
    12  C    3.680360   3.357803   1.401444   3.569628   3.290335
    13  C    5.125844   4.479852   3.198350   4.147818   1.399414
    14  C    6.001121   5.490968   4.555905   5.274545   2.414501
    15  C    6.022003   5.583208   5.422175   5.437006   2.784131
    16  C    5.178999   4.706753   5.250892   4.552059   2.414188
    17  C    4.135871   3.475429   4.132148   3.176813   1.398203
    18  C    5.462996   4.306713   3.744276   3.010698   4.199625
    19  C    6.835750   5.679918   4.936620   4.372660   5.315494
    20  C    7.736025   6.562274   5.418969   5.241989   5.474315
    21  C    7.491968   6.339712   4.903913   5.080605   4.589983
    22  C    6.266457   5.147360   3.701821   3.971048   3.226943
    23  H    5.635588   4.729641   2.160305   3.944153   4.340772
    24  H    6.805902   6.223116   3.397471   5.853154   6.111897
    25  H    6.528938   6.343022   3.872211   6.473360   6.455310
    26  H    4.931907   5.033415   3.399377   5.549861   5.232614
    27  H    3.131591   3.004955   2.163838   3.487728   2.965387
    28  H    5.498560   4.843674   2.774356   4.480469   2.162457
    29  H    6.896486   6.432709   5.137810   6.238845   3.397788
    30  H    6.931119   6.574875   6.465146   6.484702   3.869733
    31  H    5.585854   5.210440   6.205812   5.127775   3.397291
    32  H    3.727450   3.033496   4.448100   2.713023   2.154043
    33  H    4.873398   3.777783   3.781230   2.589914   4.519320
    34  H    7.337296   6.221761   5.721984   4.962648   6.276678
    35  H    8.787225   7.613229   6.453598   6.286757   6.517239
    36  H    8.399137   7.266674   5.671496   6.043377   5.157649
    37  H    6.375070   5.339699   3.720226   4.325338   2.774415
                    6          7          8          9         10
     6  C    0.000000
     7  P    1.800712   0.000000
     8  C    3.183032   2.801645   0.000000
     9  C    4.564122   4.093636   1.391431   0.000000
    10  C    5.483267   4.595976   2.411892   1.392646   0.000000
    11  C    5.352377   4.075254   2.790860   2.415407   1.393549
    12  C    4.239942   2.775927   2.422969   2.790114   2.411281
    13  C    3.728787   2.818200   4.210221   5.119614   5.223232
    14  C    4.930900   4.105080   5.568429   6.391496   6.368685
    15  C    5.435680   4.596270   6.558454   7.492907   7.469370
    16  C    4.939793   4.065460   6.465362   7.541352   7.604410
    17  C    3.736364   2.759478   5.343263   6.502931   6.680605
    18  C    1.399049   2.769481   3.692573   4.993059   6.049278
    19  C    2.412267   4.066658   4.636189   5.835103   7.032230
    20  C    2.782800   4.582757   5.083416   6.248617   7.467698
    21  C    2.412806   4.076848   4.730225   5.914688   7.020497
    22  C    1.397928   2.783464   3.812306   5.088541   6.037733
    23  H    2.677134   2.946625   1.085693   2.148146   3.394053
    24  H    5.113300   4.948334   2.147469   1.085245   2.153548
    25  H    6.527526   5.681338   3.394780   2.150750   1.085594
    26  H    6.328794   4.921180   3.876028   3.399482   2.154473
    27  H    4.595914   2.902913   3.409646   3.875985   3.393596
    28  H    3.756304   2.973648   3.548648   4.300479   4.424018
    29  H    5.706176   4.965373   6.014723   6.671181   6.571358
    30  H    6.472745   5.681751   7.587058   8.469849   8.384753
    31  H    5.720378   4.906942   7.440960   8.543298   8.595151
    32  H    3.756994   2.862089   5.632586   6.852508   7.093220
    33  H    2.153915   2.889465   3.800856   5.024498   5.988660
    34  H    3.395443   4.915841   5.332036   6.438907   7.664864
    35  H    3.868380   5.668260   6.014732   7.096614   8.366867
    36  H    3.395624   4.930106   5.477239   6.567268   7.645964
    37  H    2.162012   2.927969   4.015679   5.201254   5.979050
                   11         12         13         14         15
    11  C    0.000000
    12  C    1.390213   0.000000
    13  C    4.457909   3.367794   0.000000
    14  C    5.515312   4.528095   1.390943   0.000000
    15  C    6.504055   5.394097   2.411567   1.393578   0.000000
    16  C    6.611751   5.346765   2.791308   2.416498   1.393049
    17  C    5.766254   4.413687   2.422923   2.790719   2.410951
    18  C    6.084585   5.077734   5.097794   6.307842   6.731944
    19  C    7.237169   6.316356   6.083149   7.214261   7.644940
    20  C    7.704397   6.798297   6.001638   6.995676   7.478264
    21  C    7.144382   6.202335   4.900588   5.793105   6.344412
    22  C    5.975047   4.935541   3.598022   4.607173   5.199931
    23  H    3.876541   3.409593   4.598270   5.958375   6.897158
    24  H    3.399584   3.875352   6.014822   7.276064   8.416744
    25  H    2.151286   3.393921   6.173791   7.242939   8.382103
    26  H    1.085169   2.146432   4.992105   5.865684   6.800123
    27  H    2.146753   1.085899   3.123385   4.095259   4.771534
    28  H    3.840794   2.967775   1.086188   2.148236   3.394545
    29  H    5.789497   5.010371   2.147682   1.085219   2.154304
    30  H    7.394639   6.356908   3.394089   2.150882   1.085604
    31  H    7.559739   6.282470   3.876478   3.400321   2.153781
    32  H    6.201814   4.818276   3.405132   3.876718   3.397987
    33  H    5.978685   5.001052   5.556226   6.804348   7.166075
    34  H    7.943417   7.082701   7.111250   8.260457   8.651768
    35  H    8.691775   7.838284   6.989037   7.921095   8.390964
    36  H    7.792473   6.900774   5.239706   5.944643   6.516973
    37  H    5.792410   4.756136   2.796258   3.667768   4.360419
                   16         17         18         19         20
    16  C    0.000000
    17  C    1.391002   0.000000
    18  C    6.089522   4.820387   0.000000
    19  C    7.059339   5.893058   1.390835   0.000000
    20  C    7.072047   6.084554   2.412569   1.393348   0.000000
    21  C    6.117247   5.274249   2.792079   2.415545   1.392933
    22  C    4.959641   4.034790   2.424176   2.790124   2.411254
    23  H    6.733503   5.567212   2.961374   3.702827   4.127545
    24  H    8.488929   7.440215   5.367792   5.998829   6.360511
    25  H    8.591127   7.717810   7.042368   7.964170   8.381413
    26  H    6.976422   6.267742   7.093529   8.281786   8.752027
    27  H    4.669334   3.852344   5.513043   6.816131   7.299457
    28  H    3.877430   3.409620   5.097462   6.030289   5.911118
    29  H    3.400283   3.875936   7.102773   7.937924   7.603216
    30  H    2.150924   3.393924   7.766867   8.627535   8.382514
    31  H    1.085191   2.147928   6.755998   7.687078   7.728958
    32  H    2.154723   1.086027   4.579445   5.672249   6.048537
    33  H    6.404509   5.054788   1.084730   2.155467   3.399231
    34  H    7.989869   6.789467   2.146613   1.085202   2.153917
    35  H    8.012302   7.086018   3.395128   2.151305   1.085580
    36  H    6.460337   5.812704   3.877216   3.399791   2.154080
    37  H    4.354810   3.647325   3.410967   3.875866   3.393188
                   21         22         23         24         25
    21  C    0.000000
    22  C    1.390927   0.000000
    23  H    3.932290   3.246735   0.000000
    24  H    6.149675   5.539177   2.468566   0.000000
    25  H    7.956786   7.036356   4.288519   2.479894   0.000000
    26  H    8.148647   6.938471   4.961708   4.297062   2.480605
    27  H    6.639078   5.292026   4.311473   4.961214   4.287663
    28  H    4.810803   3.566191   3.999318   5.142427   5.327941
    29  H    6.326531   5.232045   6.440089   7.497849   7.341760
    30  H    7.207689   6.142906   7.935718   9.385857   9.251586
    31  H    6.848845   5.777665   7.679224   9.498184   9.583783
    32  H    5.458085   4.307400   5.777457   7.771570   8.149317
    33  H    3.876762   3.404588   3.223515   5.436947   6.962680
    34  H    3.399413   3.875322   4.378400   6.503328   8.549355
    35  H    2.150726   3.394027   5.009366   7.088883   9.232848
    36  H    1.085142   2.146956   4.721369   6.750069   8.537497
    37  H    2.146992   1.085791   3.686915   5.741262   6.962236
                   26         27         28         29         30
    26  H    0.000000
    27  H    2.466879   0.000000
    28  H    4.450328   3.037937   0.000000
    29  H    6.058419   4.660515   2.469542   0.000000
    30  H    7.601150   5.692528   4.288597   2.479620   0.000000
    31  H    7.877330   5.536762   4.962571   4.297288   2.479842
    32  H    6.729494   4.269860   4.304975   4.961931   4.294384
    33  H    6.944413   5.404412   5.587972   7.654276   8.223167
    34  H    8.987664   7.606395   7.055265   9.004295   9.638319
    35  H    9.750072   8.368440   6.875342   8.476892   9.248036
    36  H    8.768331   7.321915   5.123803   6.338541   7.271933
    37  H    6.673931   5.012136   2.787589   4.211057   5.257101
                   31         32         33         34         35
    31  H    0.000000
    32  H    2.479992   0.000000
    33  H    7.014252   4.652040   0.000000
    34  H    8.559883   6.454597   2.480432   0.000000
    35  H    8.629237   7.038627   4.295556   2.480118   0.000000
    36  H    7.181436   6.115846   4.961888   4.297041   2.480264
    37  H    5.248297   4.177254   4.304644   4.961050   4.287345
                   36         37
    36  H    0.000000
    37  H    2.466894   0.000000
 Stoichiometry    C19H15N2P
 Framework group  C1[X(C19H15N2P)]
 Deg. of freedom   105
 Full point group                 C1      NOp   1
 Largest Abelian subgroup         C1      NOp   1
 Largest concise Abelian subgroup C1      NOp   1
                         Standard orientation:                         
 ---------------------------------------------------------------------
 Center     Atomic      Atomic             Coordinates (Angstroms)
 Number     Number       Type             X           Y           Z
 ---------------------------------------------------------------------
      1          6           0        2.092711    0.874883    3.272770
      2          7           0        1.121044    0.473732    2.740473
      3          6           0        0.305977    1.565739   -0.181684
      4          7           0       -0.025999    0.001433    2.234658
      5          6           0        1.112413   -1.211106   -0.117481
      6          6           0       -1.733285   -0.521610    0.191750
      7         15           0       -0.052777   -0.025437    0.606804
      8          6           0       -0.720918    2.361861   -0.698420
      9          6           0       -0.428637    3.616501   -1.224281
     10          6           0        0.883575    4.082921   -1.228306
     11          6           0        1.909117    3.295519   -0.708461
     12          6           0        1.625350    2.038248   -0.187463
     13          6           0        1.574410   -1.090379   -1.432906
     14          6           0        2.433630   -2.051301   -1.955488
     15          6           0        2.841019   -3.125133   -1.166197
     16          6           0        2.388909   -3.243189    0.146146
     17          6           0        1.523027   -2.289804    0.671683
     18          6           0       -2.784917   -0.158595    1.040059
     19          6           0       -4.090808   -0.497580    0.702184
     20          6           0       -4.349963   -1.190979   -0.478263
     21          6           0       -3.303185   -1.551735   -1.323469
     22          6           0       -1.994034   -1.219651   -0.991022
     23          1           0       -1.745968    2.004100   -0.695764
     24          1           0       -1.226840    4.228603   -1.631661
     25          1           0        1.108678    5.062375   -1.638811
     26          1           0        2.931558    3.659114   -0.710708
     27          1           0        2.429732    1.425550    0.208451
     28          1           0        1.270581   -0.247449   -2.046876
     29          1           0        2.790118   -1.957990   -2.976228
     30          1           0        3.516862   -3.870060   -1.574676
     31          1           0        2.712195   -4.076235    0.761906
     32          1           0        1.169357   -2.373537    1.695090
     33          1           0       -2.573976    0.375765    1.960170
     34          1           0       -4.906327   -0.220152    1.362203
     35          1           0       -5.370608   -1.453338   -0.738911
     36          1           0       -3.504018   -2.096552   -2.240188
     37          1           0       -1.181360   -1.512452   -1.648876
 ---------------------------------------------------------------------
 Rotational constants (GHZ):           0.2856653           0.2681188           0.1979529
 Electric field and nuclear coordinate derivatives read from checkpoint file.
 Rotating derivatives to standard orientation.
 Full mass-weighted force constant matrix:
 Low frequencies ---   -4.7966   -1.6097   -0.0015   -0.0014    0.0007    4.6790
 Low frequencies ---   29.5836   37.6136   40.9630
 Diagonal vibrational polarizability:
       62.4398071     110.7086652      56.3666545
 Harmonic frequencies (cm**-1), IR intensities (KM/Mole), Raman scattering
 activities (A**4/AMU), depolarization ratios for plane and unpolarized
 incident light, reduced masses (AMU), force constants (mDyne/A),
 and normal coordinates:
                      1                      2                      3
                      A                      A                      A
 Frequencies --     29.4633                37.5858                40.9608
 Red. masses --      3.8109                 4.2280                 5.3645
 Frc consts  --      0.0019                 0.0035                 0.0053
 IR Inten    --      0.1176                 1.0642                 2.0139
  Atom  AN      X      Y      Z        X      Y      Z        X      Y      Z
     1   6     0.02   0.03  -0.02    -0.05   0.15  -0.07     0.05  -0.22   0.02
     2   7     0.02   0.03  -0.00    -0.04   0.07  -0.04     0.02  -0.14   0.02
     3   6    -0.00   0.00  -0.01     0.01  -0.02  -0.01    -0.03  -0.04   0.01
     4   7     0.01   0.03   0.01    -0.01  -0.00  -0.02    -0.02  -0.06   0.02
     5   6     0.00  -0.00   0.02    -0.00  -0.02  -0.01    -0.00  -0.01   0.01
     6   6     0.01   0.01   0.00    -0.01  -0.02  -0.03    -0.04   0.00   0.02
     7  15     0.01   0.01   0.01    -0.01  -0.02  -0.02    -0.03  -0.04   0.02
     8   6    -0.01   0.00   0.02    -0.01   0.08   0.17    -0.03  -0.06  -0.04
     9   6    -0.02  -0.00  -0.00     0.01   0.10   0.23    -0.02  -0.08  -0.09
    10   6    -0.02  -0.01  -0.04     0.03   0.02   0.11    -0.02  -0.08  -0.09
    11   6    -0.01  -0.01  -0.06     0.05  -0.08  -0.07    -0.03  -0.06  -0.04
    12   6     0.00  -0.00  -0.05     0.03  -0.10  -0.13    -0.03  -0.04   0.01
    13   6     0.02  -0.02   0.03    -0.10  -0.10  -0.05    -0.07  -0.03  -0.02
    14   6     0.00  -0.04   0.04    -0.08  -0.10  -0.03     0.01   0.04   0.00
    15   6    -0.03  -0.04   0.04     0.03  -0.01   0.03     0.18   0.13   0.04
    16   6    -0.04  -0.03   0.04     0.13   0.07   0.07     0.24   0.15   0.07
    17   6    -0.03  -0.01   0.03     0.11   0.06   0.05     0.15   0.08   0.05
    18   6     0.02  -0.20   0.11    -0.01  -0.01  -0.03    -0.03   0.02   0.03
    19   6     0.03  -0.20   0.09    -0.01  -0.00  -0.04    -0.04   0.10   0.01
    20   6     0.02   0.01  -0.03    -0.01  -0.00  -0.03    -0.07   0.17  -0.02
    21   6     0.01   0.21  -0.13    -0.01  -0.02  -0.03    -0.09   0.15  -0.03
    22   6     0.00   0.21  -0.12    -0.01  -0.02  -0.03    -0.07   0.06  -0.01
    23   1    -0.01   0.00   0.05    -0.03   0.14   0.27    -0.02  -0.07  -0.04
    24   1    -0.03  -0.00   0.02    -0.01   0.18   0.38    -0.01  -0.10  -0.12
    25   1    -0.03  -0.01  -0.05     0.04   0.04   0.16    -0.02  -0.10  -0.12
    26   1    -0.01  -0.01  -0.09     0.07  -0.14  -0.17    -0.03  -0.06  -0.04
    27   1     0.01  -0.00  -0.06     0.04  -0.17  -0.26    -0.04  -0.02   0.04
    28   1     0.04  -0.01   0.02    -0.17  -0.17  -0.09    -0.18  -0.09  -0.05
    29   1     0.01  -0.05   0.04    -0.15  -0.16  -0.06    -0.04   0.02  -0.02
    30   1    -0.04  -0.06   0.05     0.05  -0.01   0.05     0.25   0.19   0.06
    31   1    -0.07  -0.03   0.05     0.21   0.14   0.12     0.37   0.22   0.10
    32   1    -0.04   0.00   0.03     0.18   0.12   0.08     0.20   0.09   0.07
    33   1     0.03  -0.35   0.19    -0.01  -0.01  -0.04    -0.00  -0.02   0.05
    34   1     0.04  -0.37   0.17    -0.01   0.01  -0.04    -0.03   0.12   0.02
    35   1     0.02   0.00  -0.04    -0.02   0.00  -0.04    -0.09   0.24  -0.04
    36   1     0.00   0.38  -0.23    -0.02  -0.02  -0.03    -0.11   0.20  -0.06
    37   1    -0.01   0.37  -0.20    -0.02  -0.03  -0.02    -0.08   0.05  -0.02
                      4                      5                      6
                      A                      A                      A
 Frequencies --     51.4919                56.3479                67.2806
 Red. masses --      5.7836                 6.0826                 4.6075
 Frc consts  --      0.0090                 0.0114                 0.0123
 IR Inten    --      2.9269                 1.4601                 0.5025
  Atom  AN      X      Y      Z        X      Y      Z        X      Y      Z
     1   6    -0.21   0.23   0.15    -0.06   0.29   0.03    -0.07   0.15  -0.06
     2   7    -0.11   0.10   0.08     0.01   0.11   0.03    -0.04   0.05  -0.03
     3   6     0.03  -0.01   0.04    -0.01  -0.06   0.04    -0.01  -0.04   0.00
     4   7    -0.03  -0.03   0.03     0.08  -0.06   0.04    -0.01  -0.05  -0.01
     5   6    -0.01   0.01  -0.02     0.05  -0.06   0.01    -0.03  -0.03  -0.03
     6   6    -0.01  -0.01   0.02     0.06  -0.06   0.04    -0.04  -0.02   0.02
     7  15    -0.01  -0.01   0.03     0.06  -0.07   0.04    -0.03  -0.04  -0.01
     8   6     0.08  -0.03  -0.09    -0.06  -0.13   0.02     0.01   0.01   0.06
     9   6     0.15  -0.07  -0.13    -0.14  -0.12   0.02     0.04  -0.00   0.05
    10   6     0.15  -0.08  -0.05    -0.17  -0.03   0.02     0.06  -0.07  -0.02
    11   6     0.10  -0.06   0.08    -0.12   0.04   0.03     0.05  -0.12  -0.08
    12   6     0.04  -0.03   0.12    -0.04   0.02   0.04     0.02  -0.10  -0.06
    13   6    -0.12   0.01  -0.06     0.03  -0.04   0.00     0.13   0.09   0.03
    14   6    -0.14   0.04  -0.12    -0.00  -0.05  -0.04     0.23   0.17   0.06
    15   6    -0.03   0.06  -0.14    -0.01  -0.08  -0.07     0.16   0.11   0.01
    16   6     0.08   0.06  -0.10     0.01  -0.10  -0.06    -0.03  -0.03  -0.06
    17   6     0.09   0.04  -0.04     0.05  -0.09  -0.02    -0.11  -0.10  -0.08
    18   6    -0.00  -0.07   0.05     0.05   0.04  -0.00    -0.02  -0.01   0.04
    19   6    -0.00  -0.09   0.07     0.03   0.19  -0.08    -0.04   0.02   0.06
    20   6    -0.01  -0.06   0.05     0.02   0.24  -0.11    -0.07   0.04   0.06
    21   6    -0.01   0.00   0.01     0.03   0.14  -0.06    -0.09   0.03   0.04
    22   6    -0.02   0.03  -0.00     0.04  -0.01   0.02    -0.08  -0.00   0.02
    23   1     0.08  -0.02  -0.15    -0.04  -0.19   0.02    -0.01   0.06   0.11
    24   1     0.19  -0.08  -0.24    -0.17  -0.17   0.01     0.05   0.04   0.10
    25   1     0.20  -0.11  -0.09    -0.23  -0.02   0.02     0.09  -0.08  -0.04
    26   1     0.10  -0.08   0.14    -0.14   0.10   0.04     0.07  -0.17  -0.13
    27   1     0.00  -0.03   0.21    -0.01   0.07   0.04     0.01  -0.14  -0.10
    28   1    -0.20  -0.00  -0.04     0.03  -0.02   0.03     0.19   0.14   0.07
    29   1    -0.23   0.04  -0.15    -0.02  -0.04  -0.04     0.37   0.28   0.12
    30   1    -0.04   0.08  -0.19    -0.04  -0.09  -0.10     0.24   0.17   0.04
    31   1     0.17   0.08  -0.12     0.01  -0.12  -0.09    -0.09  -0.09  -0.10
    32   1     0.17   0.03  -0.01     0.07  -0.10  -0.01    -0.23  -0.19  -0.13
    33   1     0.00  -0.10   0.06     0.07   0.01   0.01     0.00  -0.02   0.04
    34   1     0.01  -0.14   0.09     0.03   0.26  -0.12    -0.02   0.03   0.08
    35   1    -0.00  -0.08   0.06     0.00   0.37  -0.17    -0.08   0.06   0.08
    36   1    -0.02   0.03  -0.01     0.01   0.18  -0.08    -0.12   0.04   0.04
    37   1    -0.02   0.07  -0.03     0.05  -0.08   0.05    -0.09  -0.01  -0.00
                      7                      8                      9
                      A                      A                      A
 Frequencies --     70.0970                97.6787               167.0855
 Red. masses --      4.9403                 7.6269                 6.2242
 Frc consts  --      0.0143                 0.0429                 0.1024
 IR Inten    --      3.0527                 7.4301                 0.9549
  Atom  AN      X      Y      Z        X      Y      Z        X      Y      Z
     1   6     0.03   0.09  -0.17    -0.29  -0.11   0.43     0.06  -0.12   0.19
     2   7     0.02   0.05  -0.12    -0.13  -0.06   0.11     0.04   0.13   0.03
     3   6     0.01  -0.03  -0.08     0.04   0.02  -0.09    -0.02  -0.12  -0.23
     4   7     0.02   0.02  -0.09    -0.04  -0.04  -0.11    -0.01   0.32  -0.01
     5   6    -0.01  -0.05  -0.05     0.06  -0.02  -0.08    -0.02  -0.04   0.07
     6   6    -0.03  -0.01  -0.03     0.04   0.03  -0.07    -0.01  -0.07   0.09
     7  15    -0.01  -0.03  -0.09     0.06   0.01  -0.10    -0.01   0.00   0.01
     8   6     0.03  -0.05  -0.16    -0.00   0.02  -0.02    -0.00  -0.07  -0.18
     9   6     0.04   0.01  -0.03    -0.06   0.05   0.03     0.01   0.02   0.03
    10   6     0.01   0.08   0.19    -0.08   0.09  -0.01     0.00   0.04   0.18
    11   6    -0.01   0.09   0.26    -0.03   0.09  -0.09     0.00  -0.06   0.03
    12   6    -0.01   0.03   0.11     0.03   0.06  -0.13    -0.01  -0.14  -0.18
    13   6     0.01  -0.09  -0.04     0.09  -0.07  -0.07    -0.04   0.03   0.07
    14   6     0.06  -0.08   0.02     0.09  -0.11  -0.02    -0.03   0.09  -0.00
    15   6     0.08  -0.03   0.08     0.05  -0.09   0.03     0.01   0.06  -0.06
    16   6     0.05   0.00   0.07     0.02  -0.04   0.02     0.02  -0.03  -0.07
    17   6     0.00  -0.01   0.01     0.02  -0.01  -0.04     0.01  -0.08   0.01
    18   6     0.01  -0.02   0.03     0.11   0.05   0.01    -0.03  -0.07   0.06
    19   6    -0.00  -0.01   0.09     0.08   0.04   0.13    -0.03  -0.01  -0.02
    20   6    -0.07   0.01   0.09    -0.01   0.03   0.16    -0.00   0.05  -0.07
    21   6    -0.11   0.03   0.03    -0.08   0.02   0.08     0.03   0.01  -0.01
    22   6    -0.09   0.02  -0.03    -0.05   0.03  -0.04     0.02  -0.05   0.07
    23   1     0.05  -0.10  -0.31     0.01  -0.01   0.01    -0.00  -0.07  -0.24
    24   1     0.06  -0.01  -0.09    -0.10   0.05   0.10     0.02   0.08   0.11
    25   1     0.01   0.13   0.31    -0.12   0.11   0.03    -0.00   0.13   0.39
    26   1    -0.03   0.15   0.42    -0.04   0.12  -0.12     0.00  -0.06   0.10
    27   1    -0.03   0.04   0.16     0.06   0.07  -0.17    -0.02  -0.19  -0.24
    28   1     0.01  -0.12  -0.08     0.12  -0.09  -0.11    -0.08   0.05   0.11
    29   1     0.09  -0.11   0.03     0.12  -0.15  -0.01    -0.05   0.15  -0.00
    30   1     0.12  -0.03   0.13     0.05  -0.12   0.06     0.03   0.10  -0.11
    31   1     0.07   0.04   0.11    -0.02  -0.03   0.05     0.05  -0.06  -0.12
    32   1    -0.02   0.03   0.00    -0.00   0.03  -0.04     0.03  -0.14   0.01
    33   1     0.06  -0.03   0.02     0.18   0.05  -0.01    -0.06  -0.09   0.07
    34   1     0.03  -0.03   0.14     0.14   0.05   0.20    -0.06   0.00  -0.06
    35   1    -0.08   0.01   0.14    -0.03   0.01   0.25     0.00   0.12  -0.14
    36   1    -0.16   0.05   0.03    -0.16   0.01   0.10     0.06   0.04  -0.03
    37   1    -0.12   0.03  -0.08    -0.10   0.02  -0.10     0.04  -0.06   0.10
                     10                     11                     12
                      A                      A                      A
 Frequencies --    189.8250               194.1541               248.3647
 Red. masses --      5.8416                 4.8224                 4.9035
 Frc consts  --      0.1240                 0.1071                 0.1782
 IR Inten    --      2.3567                 3.4932                 0.8509
  Atom  AN      X      Y      Z        X      Y      Z        X      Y      Z
     1   6     0.04   0.08   0.22    -0.00  -0.01  -0.09     0.01   0.05   0.06
     2   7     0.18   0.00   0.02    -0.07   0.01   0.01     0.08  -0.02  -0.01
     3   6    -0.00   0.02   0.01     0.15  -0.05   0.01    -0.10  -0.08  -0.05
     4   7     0.22  -0.07  -0.01    -0.10   0.06   0.03     0.09  -0.06  -0.00
     5   6    -0.19  -0.09  -0.15    -0.07  -0.12   0.08     0.08   0.09  -0.01
     6   6    -0.05   0.08   0.09    -0.01   0.18  -0.08    -0.03   0.15  -0.03
     7  15    -0.00   0.01   0.00     0.02  -0.01   0.03    -0.01   0.00   0.00
     8   6    -0.00   0.01  -0.00     0.09  -0.13   0.03    -0.09  -0.07  -0.06
     9   6    -0.00   0.01  -0.01    -0.05  -0.10   0.04    -0.03  -0.06   0.02
    10   6    -0.01   0.01  -0.01    -0.09   0.01   0.02    -0.01  -0.10   0.10
    11   6    -0.01   0.02   0.00    -0.01   0.08  -0.04    -0.03  -0.16   0.05
    12   6    -0.00   0.02   0.01     0.12   0.04  -0.04    -0.09  -0.16  -0.02
    13   6    -0.14  -0.13  -0.14    -0.11  -0.05   0.07     0.13   0.08  -0.00
    14   6     0.03  -0.05  -0.01    -0.04   0.05   0.01     0.04   0.00  -0.00
    15   6     0.13   0.06   0.09     0.07   0.06  -0.04    -0.09  -0.06  -0.02
    16   6    -0.02   0.04   0.03     0.06  -0.05  -0.04    -0.01   0.03   0.01
    17   6    -0.18  -0.04  -0.10    -0.01  -0.15   0.01     0.09   0.11   0.02
    18   6    -0.11   0.04   0.02    -0.02   0.16  -0.08    -0.05   0.18  -0.06
    19   6    -0.08  -0.04  -0.06     0.00  -0.00  -0.00    -0.03   0.03  -0.02
    20   6     0.03  -0.07  -0.07     0.03  -0.13   0.07     0.03  -0.14   0.07
    21   6     0.09  -0.00  -0.01     0.03   0.00   0.01     0.03   0.03  -0.00
    22   6     0.04   0.07   0.07     0.00   0.16  -0.07    -0.00   0.19  -0.05
    23   1    -0.00   0.01  -0.00     0.12  -0.20   0.05    -0.09  -0.05  -0.09
    24   1    -0.00   0.01  -0.02    -0.11  -0.16   0.08     0.01  -0.00   0.02
    25   1    -0.01   0.01  -0.01    -0.18   0.04   0.04     0.02  -0.07   0.19
    26   1    -0.01   0.02   0.01    -0.04   0.16  -0.07    -0.02  -0.19   0.08
    27   1    -0.00   0.02   0.02     0.18   0.10  -0.07    -0.13  -0.22  -0.04
    28   1    -0.17  -0.19  -0.21    -0.17  -0.04   0.11     0.18   0.10  -0.00
    29   1     0.11  -0.07   0.01    -0.06   0.13   0.01     0.04  -0.03  -0.01
    30   1     0.31   0.16   0.21     0.15   0.15  -0.06    -0.21  -0.16  -0.05
    31   1     0.01   0.10   0.11     0.13  -0.06  -0.09    -0.06   0.02   0.02
    32   1    -0.25  -0.03  -0.12     0.00  -0.23   0.02     0.11   0.16   0.03
    33   1    -0.20   0.06   0.04    -0.03   0.22  -0.11    -0.08   0.25  -0.09
    34   1    -0.14  -0.08  -0.11     0.00  -0.06   0.02    -0.04  -0.02  -0.02
    35   1     0.05  -0.13  -0.12     0.05  -0.31   0.16     0.06  -0.35   0.15
    36   1     0.18  -0.02  -0.02     0.04  -0.05   0.03     0.06  -0.01   0.02
    37   1     0.09   0.10   0.12     0.00   0.22  -0.09     0.01   0.28  -0.07
                     13                     14                     15
                      A                      A                      A
 Frequencies --    255.5157               268.3815               278.1158
 Red. masses --      5.9662                 6.0979                 6.2203
 Frc consts  --      0.2295                 0.2588                 0.2835
 IR Inten    --      2.9584                 4.2376                 6.0016
  Atom  AN      X      Y      Z        X      Y      Z        X      Y      Z
     1   6    -0.06  -0.00  -0.07     0.07  -0.12   0.06     0.07  -0.00   0.18
     2   7    -0.07  -0.06  -0.01    -0.01   0.19  -0.04     0.16   0.10  -0.07
     3   6    -0.02  -0.06  -0.04    -0.13   0.03   0.10     0.16  -0.05   0.07
     4   7    -0.04  -0.08  -0.03    -0.06   0.30  -0.03     0.13   0.08  -0.03
     5   6    -0.11   0.05  -0.05    -0.02  -0.05  -0.05    -0.01   0.07  -0.01
     6   6     0.13  -0.04  -0.05     0.05   0.00  -0.08    -0.01  -0.07  -0.14
     7  15     0.01   0.00  -0.03    -0.01   0.01  -0.02     0.03  -0.01  -0.03
     8   6    -0.02  -0.09  -0.05    -0.12   0.07   0.15     0.09  -0.14   0.12
     9   6    -0.02  -0.07   0.01    -0.03  -0.01   0.03    -0.03  -0.15   0.07
    10   6    -0.02  -0.06   0.09     0.03  -0.15  -0.10    -0.06  -0.08  -0.00
    11   6    -0.01  -0.09   0.02    -0.04  -0.11   0.09     0.03   0.02  -0.00
    12   6    -0.01  -0.11  -0.04    -0.13  -0.03   0.21     0.15   0.01   0.05
    13   6    -0.15   0.05  -0.05    -0.02  -0.09  -0.06    -0.01   0.10  -0.00
    14   6    -0.09   0.08   0.02     0.04  -0.06  -0.03    -0.04   0.07   0.02
    15   6    -0.04   0.16   0.11     0.10  -0.03  -0.01    -0.11   0.06   0.05
    16   6    -0.13   0.12   0.07     0.03  -0.04  -0.04    -0.08   0.09   0.06
    17   6    -0.19   0.08   0.00    -0.02  -0.07  -0.06    -0.04   0.12   0.04
    18   6     0.22   0.00   0.01     0.10   0.05  -0.06     0.01  -0.07  -0.11
    19   6     0.21   0.05   0.06     0.09   0.03   0.02    -0.03  -0.02  -0.03
    20   6     0.17   0.07   0.06     0.05  -0.02   0.06    -0.14  -0.01  -0.01
    21   6     0.11   0.02   0.01     0.01   0.01  -0.02    -0.18  -0.05  -0.05
    22   6     0.13  -0.04  -0.05     0.02   0.02  -0.09    -0.13  -0.09  -0.12
    23   1    -0.02  -0.11  -0.07    -0.14   0.13   0.21     0.12  -0.23   0.17
    24   1    -0.01  -0.05   0.02     0.02   0.03  -0.02    -0.08  -0.21   0.09
    25   1    -0.03  -0.03   0.18     0.11  -0.25  -0.29    -0.14  -0.09  -0.06
    26   1    -0.01  -0.08   0.03    -0.02  -0.16   0.09    -0.01   0.11  -0.05
    27   1    -0.02  -0.14  -0.07    -0.18  -0.04   0.29     0.19   0.07   0.05
    28   1    -0.19   0.02  -0.07    -0.03  -0.11  -0.09     0.00   0.11   0.01
    29   1    -0.05   0.04   0.03     0.04  -0.06  -0.03    -0.01   0.04   0.03
    30   1     0.06   0.21   0.18     0.17   0.02   0.02    -0.15   0.03   0.05
    31   1    -0.11   0.14   0.09     0.04  -0.03  -0.02    -0.09   0.08   0.06
    32   1    -0.26   0.11  -0.02    -0.04  -0.09  -0.07    -0.05   0.18   0.04
    33   1     0.30  -0.00  -0.01     0.15   0.08  -0.09     0.05  -0.07  -0.12
    34   1     0.23   0.07   0.08     0.12   0.04   0.05     0.03   0.02   0.03
    35   1     0.15   0.12   0.09     0.05  -0.06   0.13    -0.17   0.04   0.04
    36   1     0.04   0.02   0.02    -0.05   0.01  -0.00    -0.24  -0.05  -0.03
    37   1     0.11  -0.05  -0.06    -0.00   0.03  -0.12    -0.19  -0.14  -0.18
                     16                     17                     18
                      A                      A                      A
 Frequencies --    287.9684               363.1386               410.4092
 Red. masses --      5.5983                 7.2159                 2.8976
 Frc consts  --      0.2735                 0.5606                 0.2876
 IR Inten    --      1.7536                 5.9338                 0.2016
  Atom  AN      X      Y      Z        X      Y      Z        X      Y      Z
     1   6     0.02   0.09   0.11     0.19   0.02  -0.09    -0.00  -0.00   0.00
     2   7     0.15  -0.06  -0.02    -0.06   0.05   0.35    -0.00  -0.00   0.00
     3   6    -0.12   0.05  -0.04    -0.04   0.02   0.04     0.00  -0.00  -0.01
     4   7     0.14  -0.12   0.02    -0.03   0.01   0.23     0.00  -0.00  -0.00
     5   6    -0.02  -0.09   0.17     0.03   0.08  -0.09     0.00   0.00   0.01
     6   6     0.04  -0.05  -0.14     0.04  -0.07  -0.10     0.00   0.00  -0.00
     7  15     0.00  -0.03   0.01     0.04   0.03   0.17     0.01   0.00  -0.00
     8   6    -0.06   0.13  -0.07    -0.00  -0.01  -0.10    -0.02   0.07   0.14
     9   6     0.03   0.14  -0.05     0.02   0.01  -0.06     0.02  -0.06  -0.13
    10   6     0.05   0.07  -0.03    -0.00   0.08   0.10     0.00  -0.01  -0.01
    11   6    -0.02   0.00  -0.01     0.00  -0.01  -0.05    -0.02   0.07   0.14
    12   6    -0.11   0.02  -0.02    -0.02  -0.03  -0.10     0.02  -0.06  -0.14
    13   6    -0.11  -0.01   0.17     0.01  -0.05  -0.14    -0.07  -0.04  -0.02
    14   6    -0.08   0.09   0.07     0.05  -0.09  -0.05     0.06   0.04   0.03
    15   6     0.00   0.07  -0.01     0.10  -0.02   0.03     0.00   0.00   0.00
    16   6     0.03  -0.07  -0.01    -0.04   0.00  -0.03    -0.06  -0.04  -0.03
    17   6     0.01  -0.14   0.11    -0.05   0.04  -0.12     0.06   0.04   0.03
    18   6     0.10   0.01  -0.12     0.04  -0.02  -0.13     0.01  -0.10   0.05
    19   6     0.07   0.02  -0.00     0.01   0.01  -0.03    -0.01   0.09  -0.06
    20   6    -0.02  -0.03   0.05    -0.10  -0.05   0.03    -0.00   0.00  -0.00
    21   6    -0.08  -0.02  -0.04    -0.13  -0.01  -0.04     0.01  -0.10   0.05
    22   6    -0.05  -0.03  -0.15    -0.08  -0.03  -0.13    -0.01   0.09  -0.05
    23   1    -0.09   0.20  -0.11     0.00  -0.01  -0.17    -0.05   0.15   0.33
    24   1     0.06   0.18  -0.05     0.03   0.00  -0.10     0.04  -0.13  -0.29
    25   1     0.12   0.06  -0.03    -0.01   0.14   0.25     0.00  -0.01  -0.02
    26   1     0.01  -0.08   0.02     0.02  -0.05  -0.07    -0.05   0.14   0.31
    27   1    -0.14  -0.01  -0.00    -0.01  -0.07  -0.17     0.05  -0.14  -0.31
    28   1    -0.18   0.02   0.24     0.01  -0.11  -0.22    -0.15  -0.10  -0.06
    29   1    -0.13   0.18   0.06     0.06  -0.15  -0.05     0.12   0.09   0.05
    30   1     0.04   0.14  -0.08     0.18   0.01   0.12     0.01   0.01   0.00
    31   1     0.08  -0.11  -0.09    -0.12   0.02   0.03    -0.14  -0.10  -0.06
    32   1     0.05  -0.22   0.11    -0.10   0.05  -0.13     0.14   0.09   0.06
    33   1     0.17   0.03  -0.14     0.07  -0.00  -0.15     0.02  -0.22   0.12
    34   1     0.13   0.05   0.05     0.07   0.07   0.02    -0.02   0.20  -0.11
    35   1    -0.04  -0.07   0.15    -0.11  -0.08   0.12    -0.00   0.00  -0.00
    36   1    -0.16  -0.02  -0.02    -0.19  -0.00  -0.03     0.02  -0.20   0.11
    37   1    -0.10  -0.04  -0.21    -0.15  -0.05  -0.20    -0.03   0.21  -0.12
                     19                     20                     21
                      A                      A                      A
 Frequencies --    412.1111               417.0901               440.3184
 Red. masses --      2.9053                 2.9303                 8.3579
 Frc consts  --      0.2907                 0.3003                 0.9547
 IR Inten    --      0.0994                 0.1773                 6.9298
  Atom  AN      X      Y      Z        X      Y      Z        X      Y      Z
     1   6     0.00  -0.01   0.00     0.00  -0.01  -0.01     0.05  -0.25   0.06
     2   7    -0.01   0.01  -0.00    -0.01   0.02  -0.00    -0.11   0.43  -0.16
     3   6     0.00  -0.00   0.00     0.00   0.01   0.01    -0.01  -0.00   0.12
     4   7     0.00  -0.01   0.00     0.00  -0.01  -0.00     0.05  -0.21   0.05
     5   6    -0.01  -0.00  -0.00    -0.01  -0.01  -0.01    -0.10  -0.07  -0.07
     6   6    -0.00  -0.00   0.00    -0.00   0.01   0.00    -0.01  -0.15   0.07
     7  15    -0.00  -0.01   0.00    -0.00  -0.00  -0.00    -0.08  -0.17   0.06
     8   6    -0.01   0.03   0.06     0.02  -0.05  -0.11     0.07   0.02  -0.02
     9   6     0.01  -0.02  -0.06    -0.02   0.05   0.10     0.06   0.03  -0.07
    10   6    -0.00   0.00  -0.00    -0.00   0.00   0.01     0.01   0.15   0.02
    11   6    -0.01   0.03   0.06     0.02  -0.05  -0.11    -0.01   0.06  -0.07
    12   6     0.01  -0.02  -0.06    -0.01   0.05   0.11    -0.01   0.04  -0.07
    13   6    -0.08  -0.05  -0.03    -0.13  -0.09  -0.05     0.04   0.05  -0.01
    14   6     0.08   0.06   0.03     0.13   0.08   0.05     0.02   0.03   0.01
    15   6    -0.01  -0.00  -0.00    -0.00  -0.00  -0.00    -0.10  -0.04  -0.01
    16   6    -0.08  -0.05  -0.03    -0.12  -0.08  -0.05     0.04   0.06   0.05
    17   6     0.08   0.06   0.04     0.13   0.09   0.05    -0.00   0.03  -0.00
    18   6    -0.02   0.15  -0.08     0.01  -0.05   0.03     0.01   0.04   0.02
    19   6     0.02  -0.14   0.08    -0.00   0.04  -0.02     0.02   0.10  -0.02
    20   6     0.00  -0.00   0.00     0.01   0.00  -0.00     0.08  -0.09   0.08
    21   6    -0.01   0.15  -0.08     0.01  -0.05   0.03     0.04   0.05  -0.04
    22   6     0.02  -0.14   0.08    -0.00   0.05  -0.02     0.03   0.05  -0.04
    23   1    -0.02   0.06   0.13     0.04  -0.12  -0.25     0.06   0.05  -0.10
    24   1     0.02  -0.06  -0.13    -0.03   0.10   0.22     0.03  -0.05  -0.13
    25   1    -0.00   0.00  -0.00    -0.00   0.01   0.01    -0.01   0.19   0.10
    26   1    -0.02   0.06   0.12     0.04  -0.10  -0.24     0.01  -0.00  -0.10
    27   1     0.02  -0.06  -0.14    -0.03   0.11   0.24     0.05   0.05  -0.16
    28   1    -0.18  -0.12  -0.07    -0.28  -0.19  -0.12     0.13   0.11   0.03
    29   1     0.18   0.12   0.07     0.27   0.18   0.11     0.09   0.04   0.04
    30   1    -0.02  -0.01  -0.00    -0.01  -0.01  -0.00    -0.18  -0.10  -0.03
    31   1    -0.17  -0.12  -0.07    -0.26  -0.18  -0.10     0.13   0.12   0.09
    32   1     0.19   0.13   0.08     0.29   0.20   0.12     0.02   0.09   0.01
    33   1    -0.04   0.33  -0.18     0.01  -0.11   0.07     0.04   0.11  -0.03
    34   1     0.03  -0.31   0.17    -0.01   0.09  -0.06    -0.01   0.19  -0.10
    35   1     0.01  -0.01   0.00     0.01   0.01  -0.01     0.09  -0.21   0.14
    36   1    -0.03   0.31  -0.17     0.02  -0.10   0.06     0.00   0.13  -0.07
    37   1     0.04  -0.33   0.19    -0.01   0.10  -0.05     0.04   0.17  -0.08
                     22                     23                     24
                      A                      A                      A
 Frequencies --    457.2196               465.7292               475.8444
 Red. masses --      5.6901                 7.7380                 4.3691
 Frc consts  --      0.7008                 0.9889                 0.5829
 IR Inten    --     13.3806                22.3423                 9.4588
  Atom  AN      X      Y      Z        X      Y      Z        X      Y      Z
     1   6     0.07   0.01  -0.08     0.07  -0.18  -0.05    -0.09  -0.00   0.03
     2   7    -0.10  -0.00   0.23    -0.18   0.30   0.05     0.05  -0.04  -0.19
     3   6     0.02  -0.12  -0.22    -0.02   0.06  -0.02    -0.01   0.01   0.06
     4   7     0.05   0.02  -0.06     0.14  -0.26  -0.09    -0.07   0.04   0.01
     5   6     0.04  -0.03  -0.03     0.17   0.07   0.12     0.24   0.16   0.08
     6   6     0.02  -0.13   0.12     0.01   0.17  -0.04     0.02  -0.15   0.11
     7  15     0.11  -0.13  -0.07     0.13   0.12  -0.08     0.03  -0.03   0.03
     8   6     0.00   0.03   0.03    -0.07  -0.01  -0.01     0.02  -0.01  -0.01
     9   6     0.01   0.07   0.10    -0.04  -0.03   0.00     0.02  -0.01  -0.02
    10   6     0.04  -0.03  -0.18    -0.01  -0.09   0.05     0.00   0.03   0.03
    11   6    -0.02   0.06   0.08     0.02  -0.07   0.02     0.01   0.00  -0.03
    12   6    -0.04   0.04   0.04    -0.00  -0.04   0.02     0.00   0.01  -0.00
    13   6    -0.02   0.05  -0.03    -0.04  -0.01   0.06    -0.03  -0.02  -0.04
    14   6    -0.03   0.06  -0.01    -0.11  -0.02  -0.01    -0.09  -0.06  -0.04
    15   6    -0.07   0.08   0.05     0.10   0.10   0.04     0.14   0.10   0.07
    16   6    -0.05   0.03   0.05    -0.05  -0.07  -0.02    -0.11  -0.07  -0.03
    17   6    -0.03   0.01   0.05    -0.02  -0.08   0.04    -0.02  -0.00  -0.02
    18   6    -0.04   0.03  -0.00    -0.04  -0.02   0.00    -0.03   0.02  -0.00
    19   6    -0.04   0.05  -0.06    -0.05  -0.09   0.00    -0.03   0.06  -0.04
    20   6    -0.02  -0.12   0.04    -0.09   0.07  -0.08    -0.01  -0.11   0.05
    21   6    -0.02   0.07  -0.03    -0.02  -0.05   0.05    -0.01   0.08  -0.03
    22   6    -0.02   0.05   0.03    -0.03   0.00   0.07    -0.01   0.04   0.02
    23   1    -0.03   0.12   0.14    -0.06  -0.05  -0.00     0.02  -0.02  -0.05
    24   1    -0.03   0.15   0.28     0.01   0.02  -0.02     0.01  -0.03  -0.05
    25   1     0.07  -0.11  -0.34     0.00  -0.09   0.06    -0.01   0.05   0.06
    26   1    -0.03   0.10   0.25     0.01  -0.05   0.00     0.02  -0.03  -0.08
    27   1    -0.05   0.13   0.20    -0.05  -0.10   0.03     0.02   0.01  -0.04
    28   1    -0.06   0.07   0.01    -0.15  -0.05   0.05    -0.18  -0.12  -0.10
    29   1    -0.00   0.01  -0.00    -0.25  -0.08  -0.07    -0.25  -0.19  -0.11
    30   1    -0.07   0.08   0.05     0.21   0.19   0.05     0.28   0.20   0.13
    31   1    -0.02   0.01   0.02    -0.12  -0.16  -0.11    -0.30  -0.19  -0.10
    32   1    -0.07   0.08   0.04    -0.13  -0.15  -0.00    -0.17  -0.09  -0.07
    33   1    -0.09   0.13  -0.05    -0.09  -0.11   0.07    -0.07   0.13  -0.06
    34   1    -0.06   0.16  -0.12    -0.02  -0.20   0.08    -0.05   0.18  -0.12
    35   1    -0.00  -0.24   0.08    -0.09   0.15  -0.15     0.00  -0.21   0.09
    36   1     0.02   0.18  -0.10     0.05  -0.15   0.10     0.00   0.20  -0.10
    37   1    -0.04   0.15  -0.03    -0.04  -0.11   0.11    -0.02   0.14  -0.04
                     25                     26                     27
                      A                      A                      A
 Frequencies --    526.6203               535.2812               584.9328
 Red. masses --      4.8635                 6.7329                 8.3743
 Frc consts  --      0.7947                 1.1366                 1.6881
 IR Inten    --     40.8372               180.4395               143.4393
  Atom  AN      X      Y      Z        X      Y      Z        X      Y      Z
     1   6    -0.00   0.02  -0.05     0.01  -0.02  -0.00    -0.14  -0.06   0.01
     2   7    -0.04  -0.06   0.09    -0.02   0.03   0.02     0.02   0.01  -0.29
     3   6    -0.04   0.17   0.22     0.08   0.02  -0.17    -0.02   0.00  -0.13
     4   7     0.04   0.07  -0.13     0.06  -0.14   0.00    -0.16  -0.07   0.14
     5   6    -0.08  -0.11  -0.02    -0.10   0.06   0.07    -0.12  -0.10  -0.08
     6   6     0.05  -0.14   0.11     0.01  -0.24   0.09     0.19   0.02   0.05
     7  15     0.10   0.06  -0.10    -0.14   0.24  -0.01     0.23   0.10   0.15
     8   6    -0.06   0.01   0.02    -0.01  -0.03  -0.01    -0.09  -0.01  -0.06
     9   6    -0.01  -0.06  -0.11    -0.07  -0.01   0.07    -0.02   0.02   0.05
    10   6    -0.03   0.00   0.17    -0.03  -0.13  -0.05     0.03  -0.07  -0.04
    11   6     0.04  -0.07  -0.08     0.04   0.01   0.07     0.03   0.01   0.06
    12   6     0.02  -0.01   0.02     0.11  -0.02   0.01    -0.04   0.00  -0.03
    13   6    -0.02  -0.00   0.03     0.00  -0.07   0.10    -0.04  -0.01  -0.05
    14   6     0.02   0.05   0.02     0.03  -0.05   0.04     0.07   0.05   0.02
    15   6    -0.08  -0.01  -0.02     0.08  -0.10  -0.07    -0.10  -0.05  -0.02
    16   6     0.05   0.01   0.03     0.04   0.01  -0.08     0.06   0.05   0.04
    17   6    -0.00  -0.05   0.05     0.01   0.01  -0.05    -0.04  -0.01  -0.03
    18   6    -0.01  -0.02  -0.00     0.02  -0.02  -0.01     0.04  -0.07  -0.12
    19   6    -0.02   0.05  -0.06     0.00   0.10  -0.03    -0.00  -0.04  -0.10
    20   6    -0.04  -0.11   0.03     0.05  -0.11   0.09    -0.19  -0.06  -0.03
    21   6    -0.03   0.07  -0.02    -0.01   0.09  -0.06    -0.06   0.06   0.09
    22   6    -0.02   0.01   0.05     0.02  -0.05  -0.04    -0.03   0.04   0.10
    23   1    -0.02  -0.10  -0.13     0.01  -0.07   0.14    -0.11   0.04   0.03
    24   1     0.06  -0.13  -0.35    -0.07   0.08   0.22     0.02   0.15   0.17
    25   1    -0.04   0.04   0.26    -0.04  -0.15  -0.09     0.03  -0.08  -0.05
    26   1     0.07  -0.14  -0.32    -0.02   0.17   0.16     0.02   0.05   0.20
    27   1     0.01  -0.13  -0.15     0.06  -0.00   0.14    -0.10   0.00   0.09
    28   1     0.02   0.06   0.10     0.07  -0.09   0.03     0.08   0.07  -0.00
    29   1     0.11   0.13   0.06    -0.02   0.07   0.04     0.28   0.14   0.10
    30   1    -0.11  -0.02  -0.05     0.07  -0.10  -0.08    -0.11  -0.06  -0.02
    31   1     0.18   0.06   0.03     0.02   0.04  -0.02     0.24   0.18   0.12
    32   1     0.06   0.01   0.08     0.09  -0.09  -0.03     0.08   0.09   0.02
    33   1    -0.07   0.10  -0.05     0.04   0.15  -0.11    -0.12  -0.04  -0.10
    34   1    -0.03   0.20  -0.13    -0.02   0.32  -0.14     0.10   0.06  -0.01
    35   1    -0.03  -0.16   0.05     0.05  -0.16   0.13    -0.18  -0.06  -0.05
    36   1     0.01   0.21  -0.12    -0.08   0.30  -0.18     0.07   0.09   0.04
    37   1    -0.05   0.11  -0.04     0.01   0.12  -0.13    -0.14  -0.01  -0.02
                     28                     29                     30
                      A                      A                      A
 Frequencies --    633.5390               634.9678               635.2968
 Red. masses --      6.4535                 6.4519                 6.4610
 Frc consts  --      1.5261                 1.5326                 1.5364
 IR Inten    --      0.1807                 0.4229                 0.8673
  Atom  AN      X      Y      Z        X      Y      Z        X      Y      Z
     1   6    -0.00  -0.00  -0.00    -0.00  -0.00   0.00     0.01   0.00   0.00
     2   7    -0.01  -0.00   0.01     0.01   0.00  -0.02    -0.00  -0.00   0.02
     3   6    -0.01   0.01  -0.01     0.01  -0.00  -0.00    -0.13   0.01  -0.03
     4   7     0.01   0.00  -0.02    -0.02  -0.01   0.03     0.01   0.00  -0.01
     5   6    -0.01   0.08  -0.11    -0.01  -0.01   0.03    -0.01   0.00   0.02
     6   6    -0.02   0.01   0.03    -0.04   0.06   0.12    -0.03   0.00  -0.00
     7  15    -0.01   0.01  -0.01     0.00   0.01   0.01    -0.02   0.00  -0.01
     8   6    -0.03  -0.01   0.00     0.02   0.02  -0.01    -0.25  -0.18   0.05
     9   6     0.01  -0.02   0.01    -0.02   0.03  -0.01     0.18  -0.26   0.15
    10   6     0.01  -0.01   0.01    -0.01  -0.00  -0.01     0.14  -0.02   0.03
    11   6     0.03   0.02  -0.00    -0.03  -0.02   0.01     0.28   0.20  -0.04
    12   6    -0.00   0.02  -0.01     0.02  -0.03   0.01    -0.16   0.24  -0.13
    13   6    -0.14   0.26  -0.09     0.03  -0.06   0.03     0.02  -0.03   0.02
    14   6    -0.15   0.05   0.31     0.04  -0.02  -0.07     0.01  -0.01  -0.03
    15   6     0.01  -0.08   0.12     0.01   0.01  -0.03     0.01   0.00  -0.02
    16   6     0.15  -0.28   0.10    -0.03   0.07  -0.03    -0.02   0.03  -0.02
    17   6     0.14  -0.05  -0.28    -0.04   0.02   0.06    -0.01   0.01   0.02
    18   6     0.03   0.04   0.06     0.15   0.14   0.23     0.00   0.02   0.03
    19   6     0.08  -0.01  -0.03     0.31  -0.04  -0.14     0.02   0.00   0.01
    20   6     0.02  -0.02  -0.03     0.04  -0.07  -0.12     0.03   0.00  -0.00
    21   6    -0.04  -0.04  -0.07    -0.16  -0.16  -0.25    -0.01  -0.02  -0.04
    22   6    -0.07   0.01   0.03    -0.28   0.04   0.13    -0.02  -0.00  -0.01
    23   1    -0.03  -0.01   0.00     0.03   0.01   0.01    -0.30  -0.04  -0.03
    24   1     0.02  -0.00   0.01    -0.03   0.02   0.01     0.29  -0.15   0.10
    25   1    -0.03  -0.01  -0.00     0.03  -0.01   0.00    -0.26   0.03  -0.07
    26   1     0.03   0.02   0.00    -0.04   0.00   0.01     0.34   0.05   0.02
    27   1    -0.02   0.00  -0.01     0.03  -0.01   0.02    -0.26   0.12  -0.11
    28   1    -0.06   0.18  -0.22     0.02  -0.05   0.05     0.01  -0.03   0.03
    29   1    -0.08  -0.08   0.32     0.02   0.03  -0.07    -0.01   0.01  -0.03
    30   1     0.00   0.11  -0.24     0.00  -0.04   0.05     0.01  -0.02   0.02
    31   1     0.04  -0.22   0.24    -0.01   0.06  -0.05    -0.03   0.02  -0.03
    32   1     0.07   0.07  -0.29    -0.01  -0.02   0.06    -0.00  -0.02   0.03
    33   1     0.00   0.04   0.07    -0.01   0.15   0.26     0.01   0.02   0.03
    34   1     0.04  -0.02  -0.06     0.20  -0.11  -0.24    -0.00  -0.02  -0.02
    35   1    -0.01   0.03   0.05    -0.09   0.11   0.22     0.02   0.02   0.02
    36   1    -0.00  -0.03  -0.08     0.01  -0.15  -0.29    -0.02  -0.03  -0.03
    37   1    -0.04   0.03   0.05    -0.18   0.10   0.22     0.00   0.01   0.02
                     31                     32                     33
                      A                      A                      A
 Frequencies --    700.7011               713.7897               716.7782
 Red. masses --      6.5011                 2.1313                 2.0444
 Frc consts  --      1.8806                 0.6398                 0.6189
 IR Inten    --      1.2936                41.6146                69.1679
  Atom  AN      X      Y      Z        X      Y      Z        X      Y      Z
     1   6    -0.03  -0.01  -0.03     0.00   0.00  -0.00     0.00  -0.00   0.00
     2   7    -0.04  -0.02   0.02    -0.00  -0.00   0.00     0.00   0.00  -0.01
     3   6    -0.03  -0.19   0.05     0.00   0.02   0.01     0.02  -0.04  -0.11
     4   7     0.08   0.03  -0.14     0.00  -0.00  -0.00    -0.01  -0.01   0.02
     5   6    -0.11   0.14   0.08    -0.02  -0.01  -0.01    -0.05  -0.05  -0.03
     6   6     0.12   0.02   0.03     0.02  -0.12   0.07    -0.00  -0.00   0.00
     7  15     0.01   0.00  -0.01    -0.01  -0.01  -0.00    -0.00   0.00   0.00
     8   6     0.14  -0.05   0.09    -0.01   0.00  -0.01    -0.02   0.04   0.07
     9   6     0.16  -0.08   0.01    -0.01   0.01   0.01     0.01  -0.05  -0.12
    10   6     0.03   0.20  -0.04    -0.00  -0.02  -0.00    -0.01   0.02   0.07
    11   6    -0.16  -0.03  -0.06     0.01   0.01   0.02     0.03  -0.05  -0.12
    12   6    -0.16  -0.01   0.02     0.02  -0.00  -0.01    -0.00   0.04   0.08
    13   6    -0.04  -0.05   0.16     0.01   0.01   0.01     0.04   0.03   0.00
    14   6    -0.02  -0.05   0.16    -0.02  -0.02  -0.01    -0.06  -0.04  -0.03
    15   6     0.12  -0.14  -0.08     0.02   0.01   0.00     0.03   0.03   0.02
    16   6    -0.01   0.11  -0.12    -0.02  -0.01  -0.01    -0.06  -0.05  -0.01
    17   6    -0.03   0.10  -0.11     0.02   0.01   0.01     0.04   0.02   0.02
    18   6     0.06  -0.03  -0.09    -0.01   0.09  -0.06     0.00   0.00  -0.00
    19   6     0.06  -0.05  -0.08     0.02  -0.14   0.07     0.00  -0.00   0.00
    20   6    -0.13  -0.02  -0.04    -0.02   0.08  -0.05     0.00   0.00   0.00
    21   6    -0.01   0.04   0.10     0.01  -0.13   0.08    -0.00  -0.00  -0.00
    22   6    -0.00   0.06   0.09    -0.01   0.09  -0.04    -0.00  -0.00  -0.00
    23   1     0.08   0.11   0.06     0.01  -0.04  -0.06    -0.07   0.19   0.42
    24   1     0.00  -0.25   0.06     0.00   0.01  -0.03    -0.02   0.06   0.11
    25   1     0.02   0.22   0.02     0.01  -0.04  -0.06    -0.08   0.20   0.46
    26   1    -0.09  -0.24   0.03     0.01   0.01  -0.02    -0.01   0.06   0.10
    27   1    -0.06   0.14   0.03     0.02  -0.03  -0.06    -0.06   0.18   0.42
    28   1     0.03  -0.12   0.02     0.08   0.05   0.04     0.18   0.13   0.07
    29   1    -0.16   0.14   0.13     0.01   0.01   0.01     0.05   0.01   0.01
    30   1     0.09  -0.15  -0.09     0.09   0.06   0.03     0.20   0.15   0.09
    31   1    -0.15   0.18   0.04     0.01   0.01   0.01     0.04   0.01   0.01
    32   1     0.04  -0.05  -0.10     0.08   0.05   0.03     0.18   0.13   0.08
    33   1    -0.05  -0.01  -0.07    -0.06   0.43  -0.24     0.00   0.01  -0.01
    34   1     0.16   0.01   0.02     0.00   0.08  -0.05     0.00   0.01  -0.00
    35   1    -0.13  -0.00  -0.05    -0.06   0.49  -0.28    -0.00   0.01  -0.00
    36   1     0.14   0.04   0.07     0.00   0.09  -0.05    -0.00   0.01  -0.01
    37   1    -0.08   0.03   0.01    -0.05   0.44  -0.25     0.00   0.01  -0.01
                     34                     35                     36
                      A                      A                      A
 Frequencies --    717.5486               740.7623               751.1276
 Red. masses --      2.2092                 5.4806                 4.0055
 Frc consts  --      0.6702                 1.7719                 1.3315
 IR Inten    --     20.6203                86.8501                93.4403
  Atom  AN      X      Y      Z        X      Y      Z        X      Y      Z
     1   6    -0.00  -0.00  -0.00    -0.00  -0.00  -0.00    -0.02  -0.01  -0.01
     2   7    -0.00  -0.00   0.00     0.00  -0.00  -0.01    -0.01  -0.00  -0.03
     3   6    -0.01   0.02   0.06    -0.03  -0.13   0.07    -0.01  -0.03   0.01
     4   7     0.00   0.00  -0.01     0.00  -0.02   0.00    -0.02  -0.00   0.00
     5   6    -0.11  -0.06  -0.04     0.09  -0.09  -0.05    -0.00   0.06   0.04
     6   6     0.01   0.03  -0.01    -0.02   0.01  -0.01    -0.12  -0.02  -0.03
     7  15    -0.00  -0.00   0.00    -0.03   0.17  -0.00     0.15   0.02   0.02
     8   6     0.01  -0.02  -0.04     0.13  -0.09   0.04     0.02  -0.01   0.00
     9   6    -0.01   0.03   0.07     0.15  -0.08   0.07     0.03  -0.00   0.01
    10   6     0.01  -0.01  -0.04     0.04   0.16  -0.09     0.01   0.03  -0.01
    11   6    -0.02   0.03   0.06    -0.17  -0.03  -0.00    -0.05  -0.02   0.00
    12   6    -0.00  -0.02  -0.04    -0.15  -0.04  -0.03    -0.05  -0.02  -0.00
    13   6     0.08   0.05   0.04     0.02   0.03  -0.14    -0.06  -0.04   0.04
    14   6    -0.11  -0.07  -0.04     0.03   0.04  -0.15    -0.03  -0.02   0.07
[...]
    33   1    -0.01  -0.03  -0.05     0.01   0.02   0.04     0.17   0.42   0.72
    34   1    -0.01   0.00   0.01    -0.00   0.00   0.00    -0.33   0.11   0.26
    35   1    -0.05  -0.01  -0.01     0.02   0.01   0.01    -0.20  -0.05  -0.05
    36   1    -0.02  -0.04  -0.07     0.01   0.02   0.03    -0.03  -0.08  -0.14
    37   1     0.04  -0.01  -0.03    -0.02   0.01   0.01     0.05  -0.02  -0.04

 -------------------
 - Thermochemistry -
 -------------------
 Temperature   263.150 Kelvin.  Pressure   1.00000 Atm.
 Atom     1 has atomic number  6 and mass  12.00000
 Atom     2 has atomic number  7 and mass  14.00307
 Atom     3 has atomic number  6 and mass  12.00000
 Atom     4 has atomic number  7 and mass  14.00307
 Atom     5 has atomic number  6 and mass  12.00000
 Atom     6 has atomic number  6 and mass  12.00000
 Atom     7 has atomic number 15 and mass  30.97376
 Atom     8 has atomic number  6 and mass  12.00000
 Atom     9 has atomic number  6 and mass  12.00000
 Atom    10 has atomic number  6 and mass  12.00000
 Atom    11 has atomic number  6 and mass  12.00000
 Atom    12 has atomic number  6 and mass  12.00000
 Atom    13 has atomic number  6 and mass  12.00000
 Atom    14 has atomic number  6 and mass  12.00000
 Atom    15 has atomic number  6 and mass  12.00000
 Atom    16 has atomic number  6 and mass  12.00000
 Atom    17 has atomic number  6 and mass  12.00000
 Atom    18 has atomic number  6 and mass  12.00000
 Atom    19 has atomic number  6 and mass  12.00000
 Atom    20 has atomic number  6 and mass  12.00000
 Atom    21 has atomic number  6 and mass  12.00000
 Atom    22 has atomic number  6 and mass  12.00000
 Atom    23 has atomic number  1 and mass   1.00783
 Atom    24 has atomic number  1 and mass   1.00783
 Atom    25 has atomic number  1 and mass   1.00783
 Atom    26 has atomic number  1 and mass   1.00783
 Atom    27 has atomic number  1 and mass   1.00783
 Atom    28 has atomic number  1 and mass   1.00783
 Atom    29 has atomic number  1 and mass   1.00783
 Atom    30 has atomic number  1 and mass   1.00783
 Atom    31 has atomic number  1 and mass   1.00783
 Atom    32 has atomic number  1 and mass   1.00783
 Atom    33 has atomic number  1 and mass   1.00783
 Atom    34 has atomic number  1 and mass   1.00783
 Atom    35 has atomic number  1 and mass   1.00783
 Atom    36 has atomic number  1 and mass   1.00783
 Atom    37 has atomic number  1 and mass   1.00783
 Molecular mass:   302.09729 amu.
 Principal axes and moments of inertia in atomic units:
                           1         2         3
     Eigenvalues --  6317.676306731.123969117.02481
           X            0.99895  -0.04392  -0.01315
           Y            0.04383   0.99901  -0.00710
           Z            0.01345   0.00651   0.99989
 This molecule is an asymmetric top.
 Rotational symmetry number  1.
 Warning -- assumption of classical behavior for rotation
           may cause significant error
 Rotational temperatures (Kelvin)      0.01371     0.01287     0.00950
 Rotational constants (GHZ):           0.28567     0.26812     0.19795
 Zero-point vibrational energy     767045.0 (Joules/Mol)
                                  183.32816 (Kcal/Mol)
 Warning -- explicit consideration of  26 degrees of freedom as
           vibrations may cause significant error
 Vibrational temperatures:     42.39    54.08    58.93    74.09    81.07
          (Kelvin)             96.80   100.85   140.54   240.40   273.12
                              279.34   357.34   367.63   386.14   400.15
                              414.32   522.48   590.49   592.94   600.10
                              633.52   657.84   670.08   684.63   757.69
                              770.15   841.59   911.52   913.58   914.05
                             1008.15  1026.98  1031.28  1032.39  1065.79
                             1080.71  1114.00  1114.93  1124.69  1205.88
                             1268.98  1272.68  1278.22  1386.63  1395.03
                             1398.88  1451.86  1458.65  1462.00  1471.97
                             1472.87  1474.18  1493.48  1495.77  1496.84
                             1534.89  1536.13  1538.21  1621.00  1624.30
                             1627.47  1638.92  1658.23  1664.61  1670.29
                             1731.42  1732.58  1733.08  1767.61  1772.54
                             1775.04  1925.58  1934.24  1936.47  1980.94
                             1984.34  1984.82  2152.21  2157.04  2158.55
                             2226.85  2228.52  2231.46  2393.36  2397.12
                             2398.63  2420.26  2421.54  2423.60  3190.98
                             4634.51  4634.93  4637.90  4642.09  4642.50
                             4648.38  4649.85  4650.23  4659.63  4661.88
                             4662.33  4671.79  4672.64  4673.60  4682.87
 
 Zero-point correction=                           0.292152 (Hartree/Particle)
 Thermal correction to Energy=                    0.307068
 Thermal correction to Enthalpy=                  0.307901
 Thermal correction to Gibbs Free Energy=         0.250828
 Sum of electronic and zero-point Energies=          -1183.232725
 Sum of electronic and thermal Energies=             -1183.217809
 Sum of electronic and thermal Enthalpies=           -1183.216976
 Sum of electronic and thermal Free Energies=        -1183.274048
 
                     E (Thermal)             CV                S
                      KCal/Mol        Cal/Mol-Kelvin    Cal/Mol-Kelvin
 Total                  192.688             63.915            136.096
 Electronic               0.000              0.000              0.000
 Translational            0.784              2.981             42.393
 Rotational               0.784              2.981             33.943
 Vibrational            191.119             57.954             59.760
 Vibration     1          0.524              1.983              5.618
 Vibration     2          0.525              1.980              5.135
 Vibration     3          0.525              1.979              4.965
 Vibration     4          0.526              1.974              4.513
 Vibration     5          0.527              1.972              4.335
 Vibration     6          0.529              1.965              3.986
 Vibration     7          0.529              1.963              3.905
 Vibration     8          0.535              1.941              3.257
 Vibration     9          0.559              1.855              2.235
 Vibration    10          0.569              1.818              2.000
 Vibration    11          0.571              1.811              1.959
 Vibration    12          0.601              1.708              1.525
 Vibration    13          0.605              1.693              1.477
 Vibration    14          0.614              1.666              1.394
 Vibration    15          0.620              1.645              1.335
 Vibration    16          0.627              1.623              1.278
 Vibration    17          0.684              1.445              0.922
 Vibration    18          0.726              1.328              0.752
 Vibration    19          0.727              1.323              0.746
 Vibration    20          0.732              1.311              0.730
 Vibration    21          0.754              1.252              0.661
 Vibration    22          0.771              1.210              0.615
 Vibration    23          0.779              1.189              0.592
 Vibration    24          0.789              1.164              0.567
 Vibration    25          0.842              1.039              0.455
 Vibration    26          0.852              1.018              0.439
                       Q            Log10(Q)             Ln(Q)
 Total Bot       0.191489-130       -130.717856       -300.988986
 Total V=0       0.343374D+22         21.535767         49.587937
 Vib (Bot)       0.216921-145       -145.663699       -335.403062
 Vib (Bot)    1  0.620097D+01          0.792460          1.824706
 Vib (Bot)    2  0.485760D+01          0.686422          1.580545
 Vib (Bot)    3  0.445589D+01          0.648935          1.494227
 Vib (Bot)    4  0.354028D+01          0.549037          1.264205
 Vib (Bot)    5  0.323308D+01          0.509616          1.173434
 Vib (Bot)    6  0.270317D+01          0.431874          0.994426
 Vib (Bot)    7  0.259332D+01          0.413856          0.952938
 Vib (Bot)    8  0.185038D+01          0.267261          0.615391
 Vib (Bot)    9  0.105748D+01          0.024273          0.055891
 Vib (Bot)   10  0.921587D+00         -0.035464         -0.081658
 Vib (Bot)   11  0.899208D+00         -0.046140         -0.106241
 Vib (Bot)   12  0.682732D+00         -0.165750         -0.381653
 Vib (Bot)   13  0.660742D+00         -0.179968         -0.414391
 Vib (Bot)   14  0.623979D+00         -0.204830         -0.471639
 Vib (Bot)   15  0.598303D+00         -0.223079         -0.513659
 Vib (Bot)   16  0.573982D+00         -0.241101         -0.555157
 Vib (Bot)   17  0.429546D+00         -0.366990         -0.845026
 Vib (Bot)   18  0.364269D+00         -0.438578         -1.009863
 Vib (Bot)   19  0.362180D+00         -0.441075         -1.015613
 Vib (Bot)   20  0.356161D+00         -0.448354         -1.032373
 Vib (Bot)   21  0.329769D+00         -0.481791         -1.109364
 Vib (Bot)   22  0.312152D+00         -0.505634         -1.164264
 Vib (Bot)   23  0.303739D+00         -0.517499         -1.191586
 Vib (Bot)   24  0.294110D+00         -0.531491         -1.223802
 Vib (Bot)   25  0.251116D+00         -0.600125         -1.381839
 Vib (Bot)   26  0.244567D+00         -0.611602         -1.408265
 Vib (V=0)       0.388977D+07          6.589924         15.173861
 Vib (V=0)    1  0.672110D+01          0.827440          1.905251
 Vib (V=0)    2  0.538327D+01          0.731046          1.683295
 Vib (V=0)    3  0.498386D+01          0.697566          1.606204
 Vib (V=0)    4  0.407541D+01          0.610172          1.404972
 Vib (V=0)    5  0.377151D+01          0.576515          1.327476
 Vib (V=0)    6  0.324903D+01          0.511753          1.178355
 Vib (V=0)    7  0.314108D+01          0.497079          1.144567
 Vib (V=0)    8  0.241674D+01          0.383230          0.882421
 Vib (V=0)    9  0.166973D+01          0.222646          0.512662
 Vib (V=0)   10  0.154849D+01          0.189907          0.437278
 Vib (V=0)   11  0.152887D+01          0.184371          0.424529
 Vib (V=0)   12  0.134624D+01          0.129123          0.297316
 Vib (V=0)   13  0.132860D+01          0.123395          0.284127
 Vib (V=0)   14  0.129959D+01          0.113807          0.262051
 Vib (V=0)   15  0.127972D+01          0.107116          0.246643
 Vib (V=0)   16  0.126122D+01          0.100791          0.232079
 Vib (V=0)   17  0.115917D+01          0.064149          0.147707
 Vib (V=0)   18  0.111862D+01          0.048683          0.112097
 Vib (V=0)   19  0.111739D+01          0.048206          0.110999
 Vib (V=0)   20  0.111388D+01          0.046839          0.107851
 Vib (V=0)   21  0.109896D+01          0.040980          0.094360
 Vib (V=0)   22  0.108944D+01          0.037203          0.085663
 Vib (V=0)   23  0.108503D+01          0.035441          0.081606
 Vib (V=0)   24  0.108009D+01          0.033459          0.077041
 Vib (V=0)   25  0.105952D+01          0.025108          0.057813
 Vib (V=0)   26  0.105661D+01          0.023914          0.055064
 Electronic      0.100000D+01          0.000000          0.000000
 Translational   0.151041D+09          8.179096         18.833063
 Rotational      0.584450D+07          6.766747         15.581012
 ***** Axes restored to original set *****
 -------------------------------------------------------------------
 Center     Atomic                   Forces (Hartrees/Bohr)
 Number     Number              X              Y              Z
 -------------------------------------------------------------------
      1        6           0.000011406    0.000004155   -0.000009938
      2        7          -0.000037161   -0.000007659    0.000014893
      3        6           0.000007269   -0.000001037   -0.000003364
      4        7           0.000023520   -0.000003407   -0.000016211
      5        6          -0.000001217   -0.000007483   -0.000008849
      6        6          -0.000002482    0.000001846    0.000001965
      7       15          -0.000010966    0.000004866    0.000017383
      8        6           0.000000160   -0.000000393   -0.000003232
      9        6           0.000005150    0.000000642   -0.000001098
     10        6           0.000000721   -0.000001019   -0.000003366
     11        6          -0.000000244    0.000000514   -0.000001514
     12        6          -0.000001738    0.000000463   -0.000001057
     13        6          -0.000000187   -0.000001377    0.000002225
     14        6          -0.000000243    0.000002104   -0.000002156
     15        6          -0.000000885   -0.000001203   -0.000005785
     16        6           0.000002665   -0.000000692    0.000005469
     17        6          -0.000003841    0.000003482    0.000001361
     18        6           0.000001749    0.000001831    0.000003657
     19        6          -0.000000683   -0.000000054    0.000005303
     20        6           0.000001498    0.000001333    0.000003063
     21        6          -0.000001175    0.000002078    0.000001499
     22        6           0.000003186    0.000000724   -0.000001596
     23        1           0.000001869    0.000002272    0.000000984
     24        1           0.000002313    0.000000042   -0.000000672
     25        1           0.000002355   -0.000000715   -0.000002289
     26        1           0.000000588   -0.000001196   -0.000003396
     27        1          -0.000001311    0.000000121   -0.000002885
     28        1           0.000001514   -0.000002424   -0.000000858
     29        1           0.000001186   -0.000000276   -0.000002272
     30        1          -0.000000681   -0.000000238   -0.000001821
     31        1          -0.000002427   -0.000000340   -0.000001116
     32        1          -0.000001921   -0.000001143    0.000001210
     33        1          -0.000002663   -0.000001265    0.000002130
     34        1          -0.000000356    0.000000943    0.000003721
     35        1           0.000000509    0.000002204    0.000004151
     36        1           0.000001901    0.000002157    0.000002861
     37        1           0.000000623    0.000000148    0.000001602
 -------------------------------------------------------------------
 Cartesian Forces:  Max     0.000037161 RMS     0.000005857
 FormGI is forming the generalized inverse of G from B-inverse, IUseBI=4.

 ----------------------------------------------------------------------

 Electric dipole moment (input orientation):
 (Debye = 10**-18 statcoulomb cm , SI units = C m)
                  (au)            (Debye)         (10**-30 SI)
   Tot        0.416331D+01      0.105821D+02      0.352980D+02
   x          0.145414D+01      0.369605D+01      0.123287D+02
   y          0.704378D+00      0.179035D+01      0.597197D+01
   z         -0.383699D+01     -0.975266D+01     -0.325314D+02

 Dipole polarizability, Alpha (input orientation).
 (esu units = cm**3 , SI units = C**2 m**2 J**-1)
 Alpha(0;0):
               (au)            (10**-24 esu)      (10**-40 SI)
   iso        0.278158D+03      0.412187D+02      0.458620D+02
   aniso      0.621621D+02      0.921147D+01      0.102491D+02
   xx         0.316737D+03      0.469356D+02      0.522229D+02
   yx        -0.707089D+01     -0.104780D+01     -0.116583D+01
   yy         0.266990D+03      0.395639D+02      0.440208D+02
   zx        -0.736966D+01     -0.109207D+01     -0.121509D+01
   zy         0.122409D+01      0.181391D+00      0.201825D+00
   zz         0.250746D+03      0.371567D+02      0.413424D+02

 ----------------------------------------------------------------------

 Dipole orientation:
     6         -1.42511707          0.57050612         -7.36631127
     7         -0.10697073         -0.00156009         -5.66534317
     6         -0.48566241          2.97475909         -0.36230260
     7          1.53055513         -0.71394986         -3.87098337
     6         -2.17511934         -2.21995204         -0.17836137
     6          3.13177470         -1.02438261          0.99003052
    15          0.49462301         -0.24042371         -1.01252893
     6          1.07312347          4.62742094          0.98734256
     6          0.34717597          7.13172641          1.32692908
     6         -1.92100076          7.99647359          0.31029899
     6         -3.47436851          6.35905538         -1.04647716
     6         -2.76697420          3.85138263         -1.38253895
     6         -3.85048175         -1.57394070          1.76309666
     6         -5.82113771         -3.19862585          2.38433144
     6         -6.13587234         -5.45366408          1.06109085
     6         -4.47971772         -6.09375083         -0.88246189
     6         -2.49617327         -4.48402313         -1.50208289
     6          5.59204744         -0.61709102          0.11199368
     6          7.63631178         -1.13461607          1.68078240
     6          7.23371069         -2.04524184          4.11832267
     6          4.78431898         -2.44930584          4.99354414
     6          2.72992915         -1.94289970          3.43409067
     1          2.84534464          3.96433812          1.78035682
     1          1.55427429          8.40565863          2.38799166
     1         -2.48229042          9.95150357          0.57743902
     1         -5.24106161          7.03288040         -1.84020930
     1         -3.99265900          2.58000385         -2.42762733
     1         -3.62789050          0.19434378          2.78132035
     1         -7.11766889         -2.69801638          3.89232411
     1         -7.68302808         -6.71211125          1.54196993
     1         -4.73438411         -7.84427797         -1.91987485
     1         -1.20178581         -4.96766519         -3.01950278
     1          5.88939493          0.08127876         -1.79213921
     1          9.54519342         -0.82707195          0.99733457
     1          8.83400405         -2.44601615          5.33770209
     1          4.47021419         -3.16827795          6.88813167
     1          0.82580438         -2.27975641          4.12032568

 Electric dipole moment (dipole orientation):
 (Debye = 10**-18 statcoulomb cm , SI units = C m)
                  (au)            (Debye)         (10**-30 SI)
   Tot        0.416331D+01      0.105821D+02      0.352980D+02
   x          0.000000D+00      0.000000D+00      0.000000D+00
   y          0.000000D+00      0.000000D+00      0.000000D+00
   z          0.416331D+01      0.105821D+02      0.352980D+02

 Dipole polarizability, Alpha (dipole orientation).
 (esu units = cm**3 , SI units = C**2 m**2 J**-1)
 Alpha(0;0):
               (au)            (10**-24 esu)      (10**-40 SI)
   iso        0.278158D+03      0.412187D+02      0.458620D+02
   aniso      0.621621D+02      0.921147D+01      0.102491D+02
   xx         0.304199D+03      0.450777D+02      0.501557D+02
   yx         0.959637D+01      0.142204D+01      0.158223D+01
   yy         0.267486D+03      0.396373D+02      0.441024D+02
   zx         0.260256D+02      0.385660D+01      0.429104D+01
   zy         0.211813D+01      0.313874D+00      0.349232D+00
   zz         0.262789D+03      0.389412D+02      0.433280D+02

 ----------------------------------------------------------------------

 This type of calculation cannot be archived.


 I WANT IT ALL - RICH, THIN, AND CHOCOLATE.
 Job cpu time:       0 days  0 hours  0 minutes  2.5 seconds.
 Elapsed time:       0 days  0 hours  0 minutes  0.7 seconds.
 File lengths (MBytes):  RWF=      6 Int=      0 D2E=      0 Chk=     20 Scr=      1
 Normal termination of Gaussian 16 at Sat Apr  4 19:28:07 2020.
