 Entering Gaussian System, Link 0=g16
 Initial command:
 /apps/cent7/gaussian/g16-A.03/g16-haswell/g16/l1.exe "/scratch/brown/finej/0051_imine_mechanism/ts_631gd/cyclic_complete_2/new_logs_2/Gau-213145.inp" -scrdir="/scratch/brown/finej/0051_imine_mechanism/ts_631gd/cyclic_complete_2/new_logs_2/"
 Entering Link 1 = /apps/cent7/gaussian/g16-A.03/g16-haswell/g16/l1.exe PID=    213146.
  
 Copyright (c) 1988,1990,1992,1993,1995,1998,2003,2009,2016,
            Gaussian, Inc.  All Rights Reserved.
  
 This is part of the Gaussian(R) 16 program.  It is based on
 the Gaussian(R) 09 system (copyright 2009, Gaussian, Inc.),
 the Gaussian(R) 03 system (copyright 2003, Gaussian, Inc.),
 the Gaussian(R) 98 system (copyright 1998, Gaussian, Inc.),
 the Gaussian(R) 94 system (copyright 1995, Gaussian, Inc.),
 the Gaussian 92(TM) system (copyright 1992, Gaussian, Inc.),
 the Gaussian 90(TM) system (copyright 1990, Gaussian, Inc.),
 the Gaussian 88(TM) system (copyright 1988, Gaussian, Inc.),
 the Gaussian 86(TM) system (copyright 1986, Carnegie Mellon
 University), and the Gaussian 82(TM) system (copyright 1983,
 Carnegie Mellon University). Gaussian is a federally registered
 trademark of Gaussian, Inc.
  
 This software contains proprietary and confidential information,
 including trade secrets, belonging to Gaussian, Inc.
  
 This software is provided under written license and may be
 used, copied, transmitted, or stored only in accord with that
 written license.
  
 The following legend is applicable only to US Government
 contracts under FAR:
  
                    RESTRICTED RIGHTS LEGEND
  
 Use, reproduction and disclosure by the US Government is
 subject to restrictions as set forth in subparagraphs (a)
 and (c) of the Commercial Computer Software - Restricted
 Rights clause in FAR 52.227-19.
  
 Gaussian, Inc.
 340 Quinnipiac St., Bldg. 40, Wallingford CT 06492
  
  
 ---------------------------------------------------------------
 Warning -- This program may not be used in any manner that
 competes with the business of Gaussian, Inc. or will provide
 assistance to any competitor of Gaussian, Inc.  The licensee
 of this program is prohibited from giving any competitor of
 Gaussian, Inc. access to this program.  By using this program,
 the user acknowledges that Gaussian, Inc. is engaged in the
 business of creating and licensing software in the field of
 computational chemistry and represents and warrants to the
 licensee that it is not a competitor of Gaussian, Inc. and that
 it will not use this program in any manner prohibited above.
 ---------------------------------------------------------------
  

 Cite this work as:
 Gaussian 16, Revision A.03,
 M. J. Frisch, G. W. Trucks, H. B. Schlegel, G. E. Scuseria, 
 M. A. Robb, J. R. Cheeseman, G. Scalmani, V. Barone, 
 G. A. Petersson, H. Nakatsuji, X. Li, M. Caricato, A. V. Marenich, 
 J. Bloino, B. G. Janesko, R. Gomperts, B. Mennucci, H. P. Hratchian, 
 J. V. Ortiz, A. F. Izmaylov, J. L. Sonnenberg, D. Williams-Young, 
 F. Ding, F. Lipparini, F. Egidi, J. Goings, B. Peng, A. Petrone, 
 T. Henderson, D. Ranasinghe, V. G. Zakrzewski, J. Gao, N. Rega, 
 G. Zheng, W. Liang, M. Hada, M. Ehara, K. Toyota, R. Fukuda, 
 J. Hasegawa, M. Ishida, T. Nakajima, Y. Honda, O. Kitao, H. Nakai, 
 T. Vreven, K. Throssell, J. A. Montgomery, Jr., J. E. Peralta, 
 F. Ogliaro, M. J. Bearpark, J. J. Heyd, E. N. Brothers, K. N. Kudin, 
 V. N. Staroverov, T. A. Keith, R. Kobayashi, J. Normand, 
 K. Raghavachari, A. P. Rendell, J. C. Burant, S. S. Iyengar, 
 J. Tomasi, M. Cossi, J. M. Millam, M. Klene, C. Adamo, R. Cammi, 
 J. W. Ochterski, R. L. Martin, K. Morokuma, O. Farkas, 
 J. B. Foresman, and D. J. Fox, Gaussian, Inc., Wallingford CT, 2016.
 
 ******************************************
 Gaussian 16:  ES64L-G16RevA.03 25-Dec-2016
                 4-Apr-2020 
 ******************************************
 %nprocshared=4
 Will use up to    4 processors via shared memory.
 %mem=1GB
 %oldchk=chk/cyclic_1.chk
 Copying data from "chk/cyclic_1.chk" to current chk file "/scratch/brown/finej/0051_imine_mechanism/ts_631gd/cyclic_complete_2/new_logs_2/Gau-213146.chk"
 IOpt=  2 FromEx=T IUOpen= 4 IOptOp= 5 NList=   0 IFRang= 0 IUIn= 4 IUOut= 2.
 ----------------------------------------------------------------------
 # freq=readfc wb97xd/6-31g(d) scrf=solvent=dichloromethane geom=check 
 temperature=263.15
 ----------------------------------------------------------------------
 1/29=2,38=1,112=263150,172=1/1;
 2/12=2,40=1/2;
 7/8=1,25=11/16;
 99/5=2/99;
 --------------------
 Cyclic sulfonylimine
 --------------------
 Structure from the checkpoint file:  "/scratch/brown/finej/0051_imine_mechanism/ts_631gd/cyclic_complete_2/new_logs_2/Gau-213146.chk"
 Charge =  0 Multiplicity = 1
 Redundant internal coordinates found in file.  (old form).
 C,0,3.0869423782,-2.5761312291,-0.1470559664
 C,0,2.7712280424,-2.9792972425,1.1393661714
 C,0,2.4528501127,-2.0221962451,2.1078154448
 C,0,2.4520377715,-0.664860224,1.8060134879
 C,0,2.783366542,-0.2760349634,0.5179537662
 C,0,3.1022777038,-1.2124583514,-0.4731061895
 C,0,3.3988565615,-0.7567236079,-1.8139036757
 O,0,2.9845476399,2.8104553466,-1.4696516493
 O,0,5.0212114246,1.7136197826,-0.5042266977
 S,0,3.6693020926,1.6316725718,-1.0077023092
 N,0,3.6027351123,0.4640992295,-2.1821652357
 O,0,2.7101650311,1.063969783,0.2066342
 H,0,3.3287974023,-3.3064568914,-0.9134009031
 H,0,2.7656125261,-4.0329514796,1.3941565811
 H,0,2.2022076665,-2.3384720849,3.1149710889
 H,0,2.2023968328,0.0859008549,2.546723049
 H,0,3.4459651513,-1.5002252681,-2.609223151
 Recover connectivity data from disk.
                           ----------------------------
                           !    Current Parameters    !
                           ! (Angstroms and Degrees)  !
 --------------------------                            --------------------------
 ! Name  Definition              Value          Derivative Info.                !
 --------------------------------------------------------------------------------
 ! R1    R(1,2)                  1.3846         estimate D2E/DX2                !
 ! R2    R(1,6)                  1.4022         estimate D2E/DX2                !
 ! R3    R(1,13)                 1.0859         estimate D2E/DX2                !
 ! R4    R(2,3)                  1.3983         estimate D2E/DX2                !
 ! R5    R(2,14)                 1.084          estimate D2E/DX2                !
 ! R6    R(3,4)                  1.3905         estimate D2E/DX2                !
 ! R7    R(3,15)                 1.085          estimate D2E/DX2                !
 ! R8    R(4,5)                  1.3857         estimate D2E/DX2                !
 ! R9    R(4,16)                 1.0838         estimate D2E/DX2                !
 ! R10   R(5,6)                  1.4003         estimate D2E/DX2                !
 ! R11   R(5,12)                 1.3776         estimate D2E/DX2                !
 ! R12   R(6,7)                  1.4469         estimate D2E/DX2                !
 ! R13   R(7,11)                 1.2914         estimate D2E/DX2                !
 ! R14   R(7,17)                 1.0897         estimate D2E/DX2                !
 ! R15   R(8,10)                 1.4394         estimate D2E/DX2                !
 ! R16   R(9,10)                 1.4449         estimate D2E/DX2                !
 ! R17   R(10,11)                1.6574         estimate D2E/DX2                !
 ! R18   R(10,12)                1.6483         estimate D2E/DX2                !
 ! A1    A(2,1,6)              120.1136         estimate D2E/DX2                !
 ! A2    A(2,1,13)             120.7066         estimate D2E/DX2                !
 ! A3    A(6,1,13)             119.1794         estimate D2E/DX2                !
 ! A4    A(1,2,3)              119.7416         estimate D2E/DX2                !
 ! A5    A(1,2,14)             120.1704         estimate D2E/DX2                !
 ! A6    A(3,2,14)             120.0872         estimate D2E/DX2                !
 ! A7    A(2,3,4)              121.1953         estimate D2E/DX2                !
 ! A8    A(2,3,15)             119.7337         estimate D2E/DX2                !
 ! A9    A(4,3,15)             119.071          estimate D2E/DX2                !
 ! A10   A(3,4,5)              118.3943         estimate D2E/DX2                !
 ! A11   A(3,4,16)             121.8701         estimate D2E/DX2                !
 ! A12   A(5,4,16)             119.7355         estimate D2E/DX2                !
 ! A13   A(4,5,6)              121.6487         estimate D2E/DX2                !
 ! A14   A(4,5,12)             118.0536         estimate D2E/DX2                !
 ! A15   A(6,5,12)             120.1743         estimate D2E/DX2                !
 ! A16   A(1,6,5)              118.9013         estimate D2E/DX2                !
 ! A17   A(1,6,7)              121.6047         estimate D2E/DX2                !
 ! A18   A(5,6,7)              119.4668         estimate D2E/DX2                !
 ! A19   A(6,7,11)             126.4708         estimate D2E/DX2                !
 ! A20   A(6,7,17)             118.0525         estimate D2E/DX2                !
 ! A21   A(11,7,17)            115.4711         estimate D2E/DX2                !
 ! A22   A(8,10,9)             120.6958         estimate D2E/DX2                !
 ! A23   A(8,10,11)            109.2924         estimate D2E/DX2                !
 ! A24   A(8,10,12)            103.9857         estimate D2E/DX2                !
 ! A25   A(9,10,11)            108.9315         estimate D2E/DX2                !
 ! A26   A(9,10,12)            107.8943         estimate D2E/DX2                !
 ! A27   A(11,10,12)           104.8361         estimate D2E/DX2                !
 ! A28   A(7,11,10)            118.05           estimate D2E/DX2                !
 ! A29   A(5,12,10)            118.0718         estimate D2E/DX2                !
 ! D1    D(6,1,2,3)              0.7324         estimate D2E/DX2                !
 ! D2    D(6,1,2,14)          -179.5875         estimate D2E/DX2                !
 ! D3    D(13,1,2,3)          -179.5057         estimate D2E/DX2                !
 ! D4    D(13,1,2,14)            0.1744         estimate D2E/DX2                !
 ! D5    D(2,1,6,5)             -0.5303         estimate D2E/DX2                !
 ! D6    D(2,1,6,7)           -178.6224         estimate D2E/DX2                !
 ! D7    D(13,1,6,5)           179.7041         estimate D2E/DX2                !
 ! D8    D(13,1,6,7)             1.612          estimate D2E/DX2                !
 ! D9    D(1,2,3,4)             -0.2768         estimate D2E/DX2                !
 ! D10   D(1,2,3,15)           179.7943         estimate D2E/DX2                !
 ! D11   D(14,2,3,4)          -179.9572         estimate D2E/DX2                !
 ! D12   D(14,2,3,15)            0.114          estimate D2E/DX2                !
 ! D13   D(2,3,4,5)             -0.3753         estimate D2E/DX2                !
 ! D14   D(2,3,4,16)           179.6999         estimate D2E/DX2                !
 ! D15   D(15,3,4,5)           179.554          estimate D2E/DX2                !
 ! D16   D(15,3,4,16)           -0.3707         estimate D2E/DX2                !
 ! D17   D(3,4,5,6)              0.5813         estimate D2E/DX2                !
 ! D18   D(3,4,5,12)           176.5474         estimate D2E/DX2                !
 ! D19   D(16,4,5,6)          -179.4923         estimate D2E/DX2                !
 ! D20   D(16,4,5,12)           -3.5262         estimate D2E/DX2                !
 ! D21   D(4,5,6,1)             -0.1358         estimate D2E/DX2                !
 ! D22   D(4,5,6,7)            177.9979         estimate D2E/DX2                !
 ! D23   D(12,5,6,1)          -176.0178         estimate D2E/DX2                !
 ! D24   D(12,5,6,7)             2.1159         estimate D2E/DX2                !
 ! D25   D(4,5,12,10)          153.9041         estimate D2E/DX2                !
 ! D26   D(6,5,12,10)          -30.068          estimate D2E/DX2                !
 ! D27   D(1,6,7,11)          -170.7292         estimate D2E/DX2                !
 ! D28   D(1,6,7,17)            10.1757         estimate D2E/DX2                !
 ! D29   D(5,6,7,11)            11.1892         estimate D2E/DX2                !
 ! D30   D(5,6,7,17)          -167.9059         estimate D2E/DX2                !
 ! D31   D(6,7,11,10)            5.8042         estimate D2E/DX2                !
 ! D32   D(17,7,11,10)        -175.0804         estimate D2E/DX2                !
 ! D33   D(8,10,11,7)         -139.6989         estimate D2E/DX2                !
 ! D34   D(9,10,11,7)           86.525          estimate D2E/DX2                !
 ! D35   D(12,10,11,7)         -28.7453         estimate D2E/DX2                !
 ! D36   D(8,10,12,5)          155.7502         estimate D2E/DX2                !
 ! D37   D(9,10,12,5)          -74.9606         estimate D2E/DX2                !
 ! D38   D(11,10,12,5)          41.0294         estimate D2E/DX2                !
 --------------------------------------------------------------------------------
                          Input orientation:                          
 ---------------------------------------------------------------------
 Center     Atomic      Atomic             Coordinates (Angstroms)
 Number     Number       Type             X           Y           Z
 ---------------------------------------------------------------------
      1          6           0        3.086942   -2.576131   -0.147056
      2          6           0        2.771228   -2.979297    1.139366
      3          6           0        2.452850   -2.022196    2.107815
      4          6           0        2.452038   -0.664860    1.806013
      5          6           0        2.783367   -0.276035    0.517954
      6          6           0        3.102278   -1.212458   -0.473106
      7          6           0        3.398857   -0.756724   -1.813904
      8          8           0        2.984548    2.810455   -1.469652
      9          8           0        5.021211    1.713620   -0.504227
     10         16           0        3.669302    1.631673   -1.007702
     11          7           0        3.602735    0.464099   -2.182165
     12          8           0        2.710165    1.063970    0.206634
     13          1           0        3.328797   -3.306457   -0.913401
     14          1           0        2.765613   -4.032951    1.394157
     15          1           0        2.202208   -2.338472    3.114971
     16          1           0        2.202397    0.085901    2.546723
     17          1           0        3.445965   -1.500225   -2.609223
 ---------------------------------------------------------------------
                    Distance matrix (angstroms):
                    1          2          3          4          5
     1  C    0.000000
     2  C    1.384594   0.000000
     3  C    2.406940   1.398321   0.000000
     4  C    2.805448   2.429593   1.390484   0.000000
     5  C    2.413470   2.773793   2.384529   1.385663   0.000000
     6  C    1.402194   2.414825   2.781832   2.432501   1.400283
     7  C    2.487150   3.749074   4.228029   3.742820   2.459156
     8  O    5.547527   6.354031   6.036182   4.805348   3.676611
     9  O    4.719209   5.457774   5.232166   4.194643   3.164100
    10  S    4.334221   5.165025   4.953480   3.830508   2.598433
    11  N    3.694687   4.856022   5.089974   4.301654   2.917157
    12  O    3.676601   4.149907   3.633885   2.369282   1.377640
    13  H    1.085889   2.152155   3.397699   3.891267   3.395545
    14  H    2.144974   1.084037   2.156448   3.407638   3.857780
    15  H    3.388223   2.153475   1.084995   2.139337   3.366882
    16  H    3.889123   3.420477   2.167819   1.083796   2.141128
    17  H    2.710856   4.085933   4.848627   4.602178   3.422998
                    6          7          8          9         10
     6  C    0.000000
     7  C    1.446856   0.000000
     8  O    4.146179   3.607621   0.000000
     9  O    3.499315   3.232628   2.506610   0.000000
    10  S    2.948964   2.535259   1.439380   1.444944   0.000000
    11  N    2.445851   1.291353   2.528877   2.527618   1.657414
    12  O    2.407888   2.805672   2.436274   2.503658   1.648285
    13  H    2.151744   2.704987   6.151791   5.313460   4.950753
    14  H    3.399293   4.628857   7.421694   6.458689   6.218806
    15  H    3.866824   5.312975   6.938463   6.120852   5.908540
    16  H    3.408063   4.599630   4.915915   4.461332   4.144293
    17  H    2.182642   1.089746   4.482577   4.152254   3.524703
                   11         12         13         14         15
    11  N    0.000000
    12  O    2.619712   0.000000
    13  H    3.987718   4.553879   0.000000
    14  H    5.806403   5.233726   2.483907   0.000000
    15  H    6.154310   4.504781   4.293481   2.479897   0.000000
    16  H    4.946349   2.586593   4.974870   4.313997   2.490078
    17  H    2.016315   3.878859   2.480325   4.785878   5.917431
                   16         17
    16  H    0.000000
    17  H    5.535887   0.000000
 Stoichiometry    C7H5NO3S
 Framework group  C1[X(C7H5NO3S)]
 Deg. of freedom    45
 Full point group                 C1      NOp   1
 Largest Abelian subgroup         C1      NOp   1
 Largest concise Abelian subgroup C1      NOp   1
                         Standard orientation:                         
 ---------------------------------------------------------------------
 Center     Atomic      Atomic             Coordinates (Angstroms)
 Number     Number       Type             X           Y           Z
 ---------------------------------------------------------------------
      1          6           0        2.260432    1.247278    0.068257
      2          6           0        3.298137    0.334487    0.152403
      3          6           0        3.028448   -1.033772    0.050254
      4          6           0        1.731096   -1.500669   -0.129559
      5          6           0        0.701534   -0.575817   -0.198201
      6          6           0        0.942503    0.800307   -0.103286
      7          6           0       -0.162501    1.726398   -0.224587
      8          8           0       -2.929141   -0.522501   -0.775113
      9          8           0       -1.943136   -0.330474    1.521409
     10         16           0       -1.844309   -0.144127    0.091944
     11          7           0       -1.418788    1.427599   -0.217296
     12          8           0       -0.571001   -1.040306   -0.448792
     13          1           0        2.453008    2.313705    0.137541
     14          1           0        4.316578    0.678735    0.291717
     15          1           0        3.842125   -1.748772    0.112858
     16          1           0        1.510221   -2.558284   -0.214871
     17          1           0        0.066860    2.784445   -0.348994
 ---------------------------------------------------------------------
 Rotational constants (GHZ):           2.1406084           0.6408452           0.5499079
 Electric field and nuclear coordinate derivatives read from checkpoint file.
 Rotating derivatives to standard orientation.
 Full mass-weighted force constant matrix:
 Low frequencies ---  -11.5229   -9.3874   -0.0227   -0.0147    0.0166    8.2522
 Low frequencies ---   63.6959  122.5422  226.8877
 Diagonal vibrational polarizability:
       48.5188952      14.9898869      16.0551969
 Harmonic frequencies (cm**-1), IR intensities (KM/Mole), Raman scattering
 activities (A**4/AMU), depolarization ratios for plane and unpolarized
 incident light, reduced masses (AMU), force constants (mDyne/A),
 and normal coordinates:
                      1                      2                      3
                      A                      A                      A
 Frequencies --     63.6839               122.5379               226.8874
 Red. masses --      9.1172                 6.0799                 5.6512
 Frc consts  --      0.0218                 0.0538                 0.1714
 IR Inten    --      0.6284                 0.2376                 0.2731
  Atom  AN      X      Y      Z        X      Y      Z        X      Y      Z
     1   6    -0.06  -0.01   0.16    -0.02  -0.02   0.25    -0.01   0.01  -0.02
     2   6    -0.09  -0.03   0.27     0.01  -0.00   0.04    -0.02   0.03   0.27
     3   6    -0.08  -0.02   0.14     0.05   0.01  -0.25     0.04   0.03   0.04
     4   6    -0.06  -0.00  -0.08     0.05  -0.00  -0.22     0.08   0.01  -0.26
     5   6    -0.04   0.01  -0.15     0.01  -0.02   0.05     0.04  -0.03  -0.20
     6   6    -0.04   0.01  -0.05    -0.02  -0.03   0.21     0.04  -0.02  -0.26
     7   6    -0.03   0.01  -0.14     0.00  -0.03   0.02     0.03  -0.03  -0.18
     8   8    -0.14  -0.05   0.27     0.01  -0.15   0.03     0.03   0.08  -0.00
     9   8     0.42   0.03   0.03    -0.04   0.27   0.01    -0.18  -0.01   0.07
    10  16     0.05  -0.00  -0.00    -0.01   0.02  -0.02    -0.01   0.01   0.08
    11   7    -0.03   0.00  -0.16    -0.00  -0.03  -0.23     0.03  -0.01   0.09
    12   8    -0.03   0.06  -0.30     0.01  -0.05   0.13    -0.01  -0.07   0.12
    13   1    -0.06  -0.02   0.24    -0.05  -0.03   0.40    -0.05   0.01   0.04
    14   1    -0.10  -0.05   0.45     0.00   0.00   0.06    -0.06   0.03   0.61
    15   1    -0.09  -0.03   0.22     0.08   0.02  -0.48     0.04   0.05   0.14
    16   1    -0.06   0.01  -0.16     0.08   0.01  -0.42     0.14   0.00  -0.34
    17   1    -0.03   0.00  -0.20     0.03  -0.04  -0.02     0.02  -0.04  -0.28
                      4                      5                      6
                      A                      A                      A
 Frequencies --    276.5040               315.2975               339.4341
 Red. masses --      7.5024                 4.9646                 9.7019
 Frc consts  --      0.3379                 0.2908                 0.6586
 IR Inten    --      0.6207                 2.1010                 5.6949
  Atom  AN      X      Y      Z        X      Y      Z        X      Y      Z
     1   6    -0.11   0.01   0.08    -0.12  -0.02  -0.11    -0.19  -0.01   0.06
     2   6     0.01   0.16  -0.03    -0.06   0.08  -0.00    -0.23  -0.05   0.02
     3   6     0.11   0.14  -0.06     0.02   0.06   0.10    -0.17  -0.04  -0.12
     4   6     0.14  -0.03   0.08     0.07  -0.06  -0.04    -0.16  -0.04   0.01
     5   6    -0.01  -0.17   0.11    -0.01  -0.14  -0.12    -0.09   0.00   0.10
     6   6    -0.05  -0.16   0.10    -0.07  -0.13  -0.07    -0.17   0.02  -0.02
     7   6     0.05  -0.12  -0.10    -0.01  -0.03   0.26    -0.09   0.09  -0.16
     8   8    -0.19   0.40   0.03     0.04  -0.02  -0.05     0.37   0.08  -0.24
     9   8     0.09  -0.13  -0.03     0.10   0.25  -0.02     0.26  -0.08   0.04
    10  16    -0.02   0.02  -0.02     0.02   0.03  -0.05     0.15   0.02   0.04
    11   7     0.05  -0.04  -0.12    -0.02   0.05   0.13    -0.07   0.09   0.05
    12   8    -0.03  -0.18   0.04    -0.03  -0.14  -0.02    -0.00  -0.10   0.20
    13   1    -0.27   0.04   0.06    -0.23  -0.00  -0.14    -0.16  -0.02   0.09
    14   1    -0.02   0.27  -0.13    -0.09   0.16   0.04    -0.23  -0.05   0.04
    15   1     0.20   0.23  -0.18     0.06   0.11   0.27    -0.13  -0.01  -0.27
    16   1     0.32  -0.07   0.08     0.18  -0.09   0.01    -0.24  -0.02  -0.02
    17   1     0.13  -0.15  -0.25     0.08  -0.00   0.67    -0.05   0.06  -0.37
                      7                      8                      9
                      A                      A                      A
 Frequencies --    398.1573               445.2384               467.3038
 Red. masses --      6.0671                 4.0434                10.4467
 Frc consts  --      0.5667                 0.4723                 1.3441
 IR Inten    --      1.3154                 0.5193                20.2160
  Atom  AN      X      Y      Z        X      Y      Z        X      Y      Z
     1   6     0.11   0.03  -0.16    -0.02  -0.01  -0.18     0.02  -0.10   0.03
     2   6     0.02  -0.05   0.06    -0.02   0.02   0.01     0.08  -0.05   0.10
     3   6    -0.07  -0.04   0.11     0.01   0.00   0.15     0.20  -0.06  -0.12
     4   6    -0.06   0.10  -0.18     0.07  -0.05  -0.19     0.16  -0.06   0.10
     5   6    -0.03   0.13   0.00     0.01  -0.08   0.11     0.07  -0.07   0.05
     6   6     0.02   0.13   0.05    -0.04  -0.08   0.23    -0.00  -0.05  -0.21
     7   6    -0.02   0.10   0.17    -0.00  -0.07  -0.01    -0.07   0.01  -0.03
     8   8    -0.13   0.08   0.02     0.08  -0.05  -0.02    -0.11  -0.23   0.02
     9   8     0.14  -0.09  -0.07     0.00  -0.09   0.02     0.19  -0.20  -0.13
    10  16    -0.01  -0.04  -0.07    -0.02   0.08   0.04    -0.15   0.19  -0.09
    11   7     0.01  -0.08  -0.16    -0.05   0.07  -0.07    -0.20   0.32   0.09
    12   8     0.02  -0.14   0.29    -0.00   0.13  -0.04     0.02   0.07   0.24
    13   1     0.22   0.02  -0.32    -0.03   0.01  -0.54     0.02  -0.11   0.17
    14   1     0.04  -0.13   0.15    -0.03   0.06  -0.06     0.03   0.04   0.26
    15   1    -0.16  -0.12   0.28     0.03   0.04   0.26     0.24  -0.04  -0.28
    16   1    -0.16   0.13  -0.29     0.16  -0.05  -0.51     0.17  -0.08   0.22
    17   1    -0.12   0.14   0.38     0.11  -0.13  -0.25     0.07   0.01   0.17
                     10                     11                     12
                      A                      A                      A
 Frequencies --    499.4226               522.3240               544.7566
 Red. masses --      8.5331                 4.9807                 8.9098
 Frc consts  --      1.2540                 0.8006                 1.5578
 IR Inten    --     34.9090                16.6933                66.4416
  Atom  AN      X      Y      Z        X      Y      Z        X      Y      Z
     1   6    -0.06   0.09   0.05     0.06   0.07  -0.14    -0.14  -0.03  -0.13
     2   6    -0.10   0.13  -0.05    -0.00   0.05   0.21    -0.18  -0.08   0.12
     3   6    -0.22   0.14  -0.01    -0.08   0.09  -0.15     0.07  -0.10  -0.08
     4   6    -0.15  -0.03   0.01    -0.09   0.02   0.02     0.06  -0.07   0.02
     5   6    -0.12  -0.07  -0.10    -0.09  -0.02   0.28     0.10  -0.01   0.21
     6   6     0.05  -0.08  -0.03     0.08  -0.03  -0.02    -0.13   0.06   0.02
     7   6     0.31   0.03   0.07     0.11  -0.07  -0.04    -0.07   0.19  -0.02
     8   8     0.04  -0.21   0.17    -0.06  -0.05  -0.05    -0.09   0.04   0.28
     9   8    -0.12  -0.23  -0.08     0.10   0.08  -0.03    -0.25   0.01  -0.13
    10  16     0.07   0.13  -0.02    -0.04  -0.05  -0.05     0.22  -0.05  -0.09
    11   7     0.29   0.09  -0.11     0.12  -0.07   0.18    -0.04   0.15   0.05
    12   8    -0.08  -0.07   0.06    -0.07   0.03  -0.04     0.16  -0.07  -0.06
    13   1    -0.22   0.11   0.14     0.04   0.10  -0.42    -0.01  -0.04  -0.38
    14   1    -0.07   0.03  -0.05     0.02  -0.05   0.31    -0.22   0.03   0.13
    15   1    -0.20   0.17   0.05    -0.05   0.09  -0.54     0.18   0.00  -0.34
    16   1    -0.06  -0.06   0.16     0.01   0.03  -0.27    -0.03  -0.03  -0.26
    17   1     0.43   0.02   0.23     0.09  -0.07  -0.07    -0.01   0.19   0.03
                     13                     14                     15
                      A                      A                      A
 Frequencies --    580.1824               608.7053               712.4330
 Red. masses --      5.9948                 6.0625                 8.2984
 Frc consts  --      1.1889                 1.3235                 2.4816
 IR Inten    --     19.5405                29.0443                44.6467
  Atom  AN      X      Y      Z        X      Y      Z        X      Y      Z
     1   6    -0.04   0.14  -0.07    -0.01   0.16   0.14    -0.16  -0.29   0.04
     2   6    -0.18   0.01   0.08    -0.13   0.03  -0.18     0.09  -0.01  -0.07
     3   6    -0.06  -0.03  -0.12    -0.13  -0.02   0.12     0.11   0.02   0.08
     4   6    -0.01  -0.21   0.06    -0.02  -0.16  -0.13     0.02   0.24  -0.06
     5   6     0.15  -0.03   0.00     0.14   0.01  -0.02    -0.13   0.05   0.10
     6   6     0.07  -0.02  -0.16     0.07   0.00   0.07    -0.12  -0.09  -0.13
     7   6    -0.05  -0.16   0.17     0.02  -0.13  -0.15    -0.03  -0.10  -0.01
     8   8     0.03   0.09  -0.00    -0.12  -0.01   0.03     0.04   0.01   0.10
     9   8    -0.01  -0.02   0.03     0.05   0.07  -0.11    -0.01  -0.00  -0.13
    10  16     0.01   0.03   0.03     0.01  -0.02  -0.10     0.12   0.04  -0.07
    11   7    -0.04  -0.17  -0.20     0.01  -0.02   0.26     0.07  -0.29   0.07
    12   8     0.10   0.26   0.05     0.11   0.09   0.15    -0.14   0.29   0.13
    13   1    -0.04   0.13   0.03     0.00   0.15   0.26    -0.30  -0.29   0.20
    14   1    -0.18  -0.07   0.28    -0.07  -0.10  -0.31    -0.02   0.28  -0.04
    15   1     0.07   0.13  -0.17    -0.06   0.08   0.41    -0.04  -0.15   0.16
    16   1    -0.06  -0.21   0.19    -0.08  -0.15  -0.10     0.03   0.25  -0.12
    17   1    -0.08  -0.11   0.56     0.02  -0.16  -0.40    -0.12  -0.07   0.11
                     16                     17                     18
                      A                      A                      A
 Frequencies --    726.7831               747.2561               761.2755
 Red. masses --      7.4831                 6.2453                 4.9663
 Frc consts  --      2.3288                 2.0547                 1.6958
 IR Inten    --     66.6112                92.7623                87.0520
  Atom  AN      X      Y      Z        X      Y      Z        X      Y      Z
     1   6    -0.20  -0.05   0.05     0.12   0.04   0.11     0.01   0.06   0.10
     2   6    -0.20  -0.04  -0.11     0.19   0.06  -0.09    -0.04  -0.03  -0.08
     3   6     0.14  -0.09   0.09    -0.11   0.10   0.10    -0.01  -0.06   0.12
     4   6     0.11  -0.03  -0.06    -0.05  -0.09  -0.11     0.02   0.01  -0.04
     5   6     0.06   0.02   0.15    -0.05  -0.10   0.25    -0.03  -0.01   0.22
     6   6    -0.04   0.05  -0.14     0.10  -0.06  -0.24     0.01   0.09  -0.19
     7   6     0.19   0.27   0.01    -0.07  -0.01   0.03    -0.03  -0.00   0.00
     8   8    -0.09  -0.03  -0.13     0.02   0.05   0.02     0.04  -0.03   0.01
     9   8     0.06   0.00   0.11    -0.04   0.00   0.02    -0.00  -0.03   0.00
    10  16    -0.12  -0.15   0.04     0.09  -0.12  -0.00    -0.06   0.17   0.03
    11   7     0.26   0.09  -0.08    -0.16   0.22  -0.10     0.01  -0.19   0.01
    12   8    -0.01   0.12   0.01    -0.13   0.05   0.00     0.13  -0.18  -0.12
    13   1    -0.15  -0.07   0.17    -0.01   0.05   0.36     0.11   0.04   0.13
    14   1    -0.28   0.19  -0.14     0.25  -0.12  -0.06    -0.00  -0.04  -0.35
    15   1     0.26   0.05   0.14    -0.16   0.05   0.10     0.05  -0.02  -0.18
    16   1     0.05  -0.00  -0.26     0.18  -0.11  -0.44     0.02   0.06  -0.65
    17   1     0.26   0.28   0.17     0.07  -0.00   0.31    -0.25   0.07   0.21
                     19                     20                     21
                      A                      A                      A
 Frequencies --    788.8911               834.4482               900.1005
 Red. masses --      1.3291                 5.7734                 1.4103
 Frc consts  --      0.4873                 2.3685                 0.6732
 IR Inten    --     90.0270                80.0337                10.0222
  Atom  AN      X      Y      Z        X      Y      Z        X      Y      Z
     1   6     0.01   0.01  -0.06    -0.08  -0.16  -0.01    -0.01  -0.03   0.09
     2   6    -0.00  -0.00  -0.07    -0.02  -0.01  -0.01     0.02   0.00   0.05
     3   6     0.01  -0.00  -0.06    -0.12   0.04   0.00    -0.02   0.02  -0.04
     4   6     0.01   0.01  -0.05    -0.08   0.26   0.01     0.01  -0.01  -0.12
     5   6    -0.01  -0.01   0.10     0.03   0.12   0.03    -0.00  -0.01   0.06
     6   6    -0.01   0.01   0.02    -0.01  -0.12  -0.06    -0.00  -0.00  -0.03
     7   6     0.00   0.00   0.01     0.09  -0.26   0.02    -0.00   0.02  -0.02
     8   8     0.00  -0.00   0.00    -0.05   0.02  -0.02    -0.00   0.00  -0.00
     9   8    -0.00  -0.00   0.00    -0.01   0.02   0.05    -0.00  -0.00   0.00
    10  16    -0.01   0.02   0.00    -0.04  -0.04   0.02    -0.01   0.01   0.00
    11   7     0.00  -0.01   0.01    -0.04   0.18  -0.03     0.00  -0.01  -0.00
    12   8     0.02  -0.03  -0.04     0.33  -0.02  -0.02     0.03  -0.00  -0.02
    13   1    -0.03  -0.01   0.43    -0.20  -0.15   0.04     0.04   0.00  -0.51
    14   1    -0.09  -0.04   0.65    -0.05   0.05  -0.01     0.07   0.01  -0.32
    15   1    -0.06  -0.03   0.50    -0.27  -0.12  -0.07    -0.06  -0.01   0.26
    16   1    -0.04  -0.01   0.32    -0.27   0.32  -0.12    -0.07  -0.06   0.69
    17   1    -0.01  -0.01  -0.09     0.39  -0.31   0.16    -0.03   0.05   0.14
                     22                     23                     24
                      A                      A                      A
 Frequencies --    919.7517               986.4914              1013.3875
 Red. masses --      5.5606                 1.3537                 1.4772
 Frc consts  --      2.7715                 0.7762                 0.8938
 IR Inten    --    100.4232                 0.0648                 8.6335
  Atom  AN      X      Y      Z        X      Y      Z        X      Y      Z
     1   6    -0.02  -0.24  -0.05     0.01  -0.00  -0.09     0.01   0.01  -0.08
     2   6     0.21   0.08   0.01    -0.01  -0.00   0.07     0.01   0.00   0.02
     3   6    -0.20   0.19  -0.01    -0.01   0.00   0.06    -0.00  -0.01   0.05
     4   6    -0.07  -0.20   0.03     0.01   0.00  -0.07     0.00  -0.00  -0.04
     5   6     0.05  -0.08  -0.04    -0.00  -0.00   0.02    -0.00   0.00   0.00
     6   6    -0.09  -0.01   0.03     0.00   0.00  -0.02    -0.02   0.00   0.07
     7   6    -0.04   0.26  -0.02    -0.00   0.01   0.09     0.00  -0.01  -0.16
     8   8    -0.04  -0.00  -0.02    -0.00  -0.00   0.00     0.00   0.00  -0.00
     9   8     0.01   0.01   0.01     0.00   0.00  -0.01    -0.00  -0.01   0.01
    10  16    -0.04   0.01   0.01     0.00  -0.00  -0.00    -0.00   0.00   0.00
    11   7     0.04  -0.10   0.02     0.00   0.00  -0.01     0.00  -0.00   0.01
    12   8     0.21   0.06   0.02     0.00  -0.00  -0.00    -0.00   0.00  -0.00
    13   1    -0.24  -0.21   0.13    -0.06  -0.03   0.53    -0.04  -0.01   0.41
    14   1     0.21   0.01   0.18     0.04   0.02  -0.42     0.02   0.01  -0.11
    15   1    -0.24   0.14  -0.09     0.04   0.03  -0.32     0.03   0.01  -0.29
    16   1     0.23  -0.24  -0.26    -0.03  -0.02   0.37    -0.03  -0.02   0.23
    17   1    -0.22   0.30  -0.11     0.01  -0.06  -0.51    -0.01   0.10   0.79
                     25                     26                     27
                      A                      A                      A
 Frequencies --   1033.3625              1073.1688              1159.7834
 Red. masses --      1.3238                 2.0930                 1.6512
 Frc consts  --      0.8329                 1.4202                 1.3086
 IR Inten    --      0.1948                 5.9427                80.8601
  Atom  AN      X      Y      Z        X      Y      Z        X      Y      Z
     1   6     0.01   0.00  -0.05     0.06  -0.08   0.00    -0.03   0.13  -0.00
     2   6    -0.01  -0.00   0.10    -0.15  -0.12  -0.03     0.03  -0.04   0.00
     3   6     0.02   0.00  -0.11    -0.09   0.14  -0.01    -0.02  -0.07  -0.01
     4   6    -0.01  -0.00   0.05     0.10   0.09   0.02     0.06   0.09   0.01
     5   6    -0.00  -0.00   0.00     0.01  -0.03  -0.00    -0.04  -0.07  -0.01
     6   6    -0.00   0.00   0.00     0.03   0.01   0.01    -0.03  -0.07  -0.00
     7   6     0.00  -0.00  -0.02    -0.01   0.01  -0.01    -0.01   0.05  -0.00
     8   8     0.00   0.00  -0.00     0.00   0.00   0.00     0.00   0.00   0.01
     9   8    -0.00  -0.00   0.00     0.00   0.00  -0.00     0.00   0.00  -0.01
    10  16     0.00  -0.00   0.00     0.00  -0.00  -0.00    -0.01  -0.01   0.00
    11   7     0.00   0.00   0.00    -0.01  -0.00   0.00     0.01  -0.01   0.00
    12   8    -0.00   0.00   0.00    -0.02   0.01   0.00     0.05   0.03   0.01
    13   1    -0.03  -0.01   0.30     0.46  -0.16   0.04    -0.37   0.21  -0.03
    14   1     0.07   0.03  -0.56    -0.09  -0.36  -0.02     0.16  -0.41  -0.00
    15   1    -0.08  -0.04   0.67     0.01   0.28   0.02    -0.36  -0.46  -0.07
    16   1     0.04   0.02  -0.32     0.66  -0.02   0.08     0.45   0.01   0.06
    17   1    -0.00   0.01   0.09    -0.03   0.02   0.04    -0.02   0.06  -0.02
                     28                     29                     30
                      A                      A                      A
 Frequencies --   1199.3785              1204.6784              1259.3645
 Red. masses --      1.2083                 8.8212                 3.7638
 Frc consts  --      1.0241                 7.5425                 3.5170
 IR Inten    --     41.6352               568.7038                32.2273
  Atom  AN      X      Y      Z        X      Y      Z        X      Y      Z
     1   6     0.04  -0.01   0.01    -0.02  -0.01   0.00    -0.10  -0.09  -0.02
     2   6    -0.02   0.06   0.00     0.01   0.02   0.00     0.04  -0.01   0.00
     3   6    -0.03  -0.05  -0.01    -0.04  -0.02  -0.01    -0.10   0.03  -0.01
     4   6     0.01  -0.03   0.00     0.03   0.00   0.00     0.07  -0.03   0.01
     5   6    -0.04   0.01  -0.00     0.09   0.02   0.02     0.31   0.16   0.05
     6   6    -0.02   0.03  -0.00    -0.03   0.04  -0.00     0.05   0.12   0.01
     7   6     0.01  -0.01   0.00    -0.01  -0.04   0.01    -0.02  -0.07   0.00
     8   8     0.02   0.01   0.02    -0.31  -0.12  -0.23     0.06   0.00   0.03
     9   8     0.00   0.01  -0.03    -0.04  -0.07   0.44     0.01  -0.00  -0.06
    10  16    -0.01  -0.01   0.01     0.20   0.11  -0.11    -0.04   0.01   0.02
    11   7    -0.00   0.01  -0.00    -0.00  -0.03   0.01     0.03   0.02  -0.01
    12   8     0.02   0.00   0.00    -0.07  -0.01   0.00    -0.16  -0.08  -0.04
    13   1     0.38  -0.07   0.03     0.04  -0.02  -0.01    -0.61   0.00  -0.06
    14   1    -0.21   0.63   0.01    -0.07   0.25   0.01     0.04  -0.04   0.00
    15   1    -0.31  -0.38  -0.06    -0.40  -0.43  -0.07    -0.45  -0.36  -0.07
    16   1     0.37  -0.11   0.04     0.34  -0.06   0.03     0.21  -0.05   0.01
    17   1     0.07  -0.03   0.00    -0.09  -0.04  -0.04    -0.00  -0.08   0.03
                     31                     32                     33
                      A                      A                      A
 Frequencies --   1273.3102              1313.6745              1376.9677
 Red. masses --      2.4799                 1.5238                 6.1302
 Frc consts  --      2.3689                 1.5494                 6.8481
 IR Inten    --     89.6082                22.9710                 4.7598
  Atom  AN      X      Y      Z        X      Y      Z        X      Y      Z
     1   6     0.02  -0.03  -0.00    -0.01   0.04   0.00     0.28  -0.09   0.03
     2   6    -0.09  -0.02  -0.01     0.01   0.02   0.00    -0.12   0.24  -0.00
     3   6    -0.00   0.02   0.00    -0.02   0.05   0.00    -0.19  -0.19  -0.03
     4   6    -0.03   0.09   0.00     0.05   0.04   0.01     0.27  -0.02   0.03
     5   6     0.06  -0.10  -0.00     0.12  -0.08   0.01    -0.04   0.25   0.02
     6   6     0.25  -0.14   0.04    -0.09  -0.06  -0.01    -0.07  -0.27  -0.02
     7   6    -0.03   0.11  -0.01    -0.02   0.04  -0.00    -0.03   0.12  -0.01
     8   8    -0.00  -0.00  -0.00     0.00  -0.00  -0.00     0.00  -0.00  -0.00
     9   8     0.00  -0.00  -0.00     0.00  -0.00  -0.01    -0.00  -0.00   0.02
    10  16    -0.00   0.01   0.00    -0.01   0.00   0.01     0.01   0.01  -0.01
    11   7    -0.04  -0.01  -0.00     0.01  -0.03   0.00    -0.05  -0.06   0.01
    12   8    -0.01  -0.00   0.00    -0.03   0.01  -0.00    -0.04  -0.01  -0.01
    13   1    -0.24   0.01  -0.01     0.59  -0.07   0.06    -0.46   0.04  -0.06
    14   1    -0.26   0.46  -0.01     0.07  -0.15   0.00     0.00  -0.16   0.00
    15   1    -0.17  -0.16  -0.03    -0.29  -0.26  -0.05     0.18   0.24   0.04
    16   1    -0.29   0.16  -0.03    -0.55   0.17  -0.06    -0.23   0.09  -0.03
    17   1    -0.55   0.23  -0.01     0.29  -0.02  -0.01     0.38   0.05  -0.01
                     34                     35                     36
                      A                      A                      A
 Frequencies --   1414.7492              1415.9331              1513.2989
 Red. masses --      3.2414                 2.2675                 2.5978
 Frc consts  --      3.8224                 2.6784                 3.5051
 IR Inten    --    307.1625               125.4379                17.1208
  Atom  AN      X      Y      Z        X      Y      Z        X      Y      Z
     1   6     0.00   0.01   0.00    -0.01   0.02  -0.00     0.02   0.11   0.01
     2   6     0.01  -0.06  -0.00     0.01  -0.06  -0.00     0.11  -0.12   0.01
     3   6     0.01   0.00   0.00     0.02   0.01   0.00    -0.13  -0.09  -0.02
     4   6    -0.06   0.02  -0.01    -0.06   0.02  -0.01    -0.05   0.10  -0.00
     5   6     0.02  -0.01   0.00     0.03  -0.02  -0.00     0.14  -0.02   0.02
     6   6     0.06   0.01   0.01     0.07   0.01   0.01    -0.14  -0.11  -0.02
     7   6    -0.02   0.07  -0.01    -0.01   0.08  -0.01    -0.07  -0.00   0.01
     8   8    -0.15  -0.05  -0.12     0.09   0.03   0.08     0.01  -0.00   0.00
     9   8     0.01   0.02  -0.17    -0.01  -0.01   0.12     0.00  -0.00  -0.00
    10  16     0.07   0.03   0.15    -0.05  -0.00  -0.10    -0.01   0.00  -0.00
    11   7    -0.08  -0.07   0.00    -0.08  -0.08   0.02     0.09   0.02  -0.00
    12   8    -0.00  -0.01  -0.01     0.00  -0.00   0.00    -0.02  -0.00  -0.00
    13   1    -0.20   0.05  -0.02    -0.17   0.05  -0.02     0.08   0.12   0.02
    14   1    -0.08   0.20  -0.00    -0.08   0.19  -0.00    -0.10   0.56   0.02
    15   1     0.09   0.10   0.02     0.06   0.06   0.01     0.38   0.51   0.08
    16   1     0.16  -0.02   0.02     0.14  -0.02   0.02     0.25   0.06   0.03
    17   1     0.85  -0.09   0.05     0.90  -0.09   0.00    -0.19   0.01  -0.01
                     37                     38                     39
                      A                      A                      A
 Frequencies --   1541.9726              1646.7319              1697.6622
 Red. masses --      2.6959                 6.3826                 6.5553
 Frc consts  --      3.7767                10.1975                11.1312
 IR Inten    --     23.5359               230.1571               248.7579
  Atom  AN      X      Y      Z        X      Y      Z        X      Y      Z
     1   6     0.14   0.01   0.02    -0.16  -0.06  -0.02     0.34  -0.11   0.04
     2   6    -0.01  -0.14  -0.01     0.08   0.19   0.02    -0.19   0.19  -0.01
     3   6    -0.07   0.08  -0.00    -0.21  -0.28  -0.04     0.17  -0.02   0.02
     4   6     0.17  -0.01   0.02     0.08   0.15   0.02    -0.32   0.10  -0.03
     5   6    -0.07  -0.14  -0.02     0.06  -0.22  -0.01     0.23  -0.19   0.01
     6   6    -0.10   0.17  -0.01     0.07   0.20   0.02    -0.24   0.07  -0.02
     7   6     0.05  -0.05   0.00     0.32   0.01   0.00     0.08  -0.02   0.01
     8   8    -0.00   0.00   0.00     0.00   0.01   0.00     0.01   0.00   0.00
     9   8    -0.00   0.00   0.00    -0.00   0.01  -0.00     0.00   0.00  -0.01
    10  16     0.00  -0.01  -0.00     0.00  -0.01  -0.00    -0.01  -0.00   0.00
    11   7    -0.01   0.01   0.00    -0.23  -0.05   0.01    -0.02  -0.00   0.00
    12   8     0.01   0.03   0.01    -0.03   0.02   0.00    -0.02   0.01  -0.00
    13   1    -0.56   0.15  -0.06     0.23  -0.14   0.02    -0.46   0.03  -0.06
    14   1    -0.21   0.41  -0.01     0.21  -0.11   0.02    -0.06  -0.29  -0.02
    15   1    -0.16   0.01  -0.02     0.38   0.40   0.07     0.05  -0.19  -0.01
    16   1    -0.49   0.14  -0.05     0.04   0.19   0.01     0.36  -0.03   0.04
    17   1     0.04  -0.05   0.00    -0.19   0.12  -0.03    -0.13   0.02  -0.02
                     40                     41                     42
                      A                      A                      A
 Frequencies --   1701.6030              3198.0768              3231.6724
 Red. masses --      7.2551                 1.0916                 1.0893
 Frc consts  --     12.3768                 6.5779                 6.7028
 IR Inten    --    352.9884                12.4171                 0.6602
  Atom  AN      X      Y      Z        X      Y      Z        X      Y      Z
     1   6     0.00   0.11   0.01    -0.00  -0.00  -0.00    -0.01  -0.07  -0.00
     2   6     0.03  -0.20  -0.01     0.00   0.00   0.00     0.03   0.01   0.00
     3   6     0.09   0.17   0.02     0.00   0.00   0.00    -0.02   0.01  -0.00
     4   6    -0.03  -0.10  -0.01    -0.00  -0.00  -0.00    -0.00  -0.01  -0.00
     5   6     0.05   0.24   0.02     0.00   0.00   0.00     0.00   0.00   0.00
     6   6    -0.17  -0.20  -0.02    -0.00   0.00  -0.00     0.00   0.00   0.00
     7   6     0.46   0.06   0.01    -0.02  -0.08   0.01     0.00   0.00  -0.00
     8   8     0.01   0.01   0.00    -0.00  -0.00  -0.00    -0.00  -0.00  -0.00
     9   8     0.00   0.01  -0.01    -0.00  -0.00   0.00    -0.00  -0.00   0.00
    10  16     0.00  -0.00   0.00     0.00   0.00  -0.00     0.00   0.00  -0.00
    11   7    -0.30  -0.08   0.01     0.00   0.00   0.00    -0.00   0.00   0.00
    12   8    -0.03  -0.02  -0.01    -0.00  -0.00  -0.00    -0.00  -0.00  -0.00
    13   1     0.07   0.11   0.02     0.01   0.03   0.00     0.16   0.86   0.06
    14   1    -0.10   0.19  -0.00    -0.01  -0.00  -0.00    -0.37  -0.13  -0.05
    15   1    -0.17  -0.12  -0.03    -0.00   0.00   0.00     0.19  -0.16   0.01
    16   1     0.04  -0.13  -0.00     0.00   0.00   0.00     0.01   0.07   0.01
    17   1    -0.50   0.26  -0.07     0.20   0.97  -0.11    -0.01  -0.03   0.00
                     43                     44                     45
                      A                      A                      A
 Frequencies --   3239.6935              3254.5966              3261.4541
 Red. masses --      1.0906                 1.0952                 1.0974
 Frc consts  --      6.7442                 6.8351                 6.8774
 IR Inten    --      5.5507                10.0534                 3.3352
  Atom  AN      X      Y      Z        X      Y      Z        X      Y      Z
     1   6     0.01   0.03   0.00    -0.00  -0.02  -0.00     0.00   0.01   0.00
     2   6     0.02   0.00   0.00    -0.07  -0.02  -0.01     0.03   0.01   0.00
     3   6    -0.06   0.05  -0.00    -0.01   0.02  -0.00     0.03  -0.02   0.00
     4   6    -0.00  -0.02  -0.00    -0.01  -0.04  -0.00    -0.02  -0.07  -0.01
     5   6    -0.00   0.00  -0.00    -0.00   0.00  -0.00    -0.00   0.00  -0.00
     6   6    -0.00  -0.00  -0.00     0.00   0.00   0.00    -0.00   0.00  -0.00
     7   6    -0.00  -0.00   0.00     0.00   0.00  -0.00    -0.00   0.00  -0.00
     8   8     0.00   0.00  -0.00    -0.00  -0.00  -0.00     0.00   0.00   0.00
     9   8    -0.00   0.00   0.00    -0.00  -0.00   0.00     0.00   0.00  -0.00
    10  16     0.00  -0.00  -0.00     0.00   0.00  -0.00    -0.00  -0.00   0.00
    11   7     0.00   0.00   0.00    -0.00   0.00   0.00     0.00   0.00   0.00
    12   8    -0.00   0.00  -0.00     0.00  -0.00  -0.00     0.00  -0.00  -0.00
    13   1    -0.07  -0.37  -0.02     0.04   0.26   0.02    -0.02  -0.11  -0.01
    14   1    -0.25  -0.08  -0.03     0.76   0.26   0.10    -0.32  -0.11  -0.04
    15   1     0.63  -0.55   0.05     0.16  -0.15   0.01    -0.31   0.27  -0.02
    16   1     0.05   0.26   0.02     0.09   0.47   0.04     0.17   0.81   0.06
    17   1     0.00   0.01  -0.00    -0.00  -0.00   0.00     0.00  -0.00   0.00

 -------------------
 - Thermochemistry -
 -------------------
 Temperature   263.150 Kelvin.  Pressure   1.00000 Atm.
 Atom     1 has atomic number  6 and mass  12.00000
 Atom     2 has atomic number  6 and mass  12.00000
 Atom     3 has atomic number  6 and mass  12.00000
 Atom     4 has atomic number  6 and mass  12.00000
 Atom     5 has atomic number  6 and mass  12.00000
 Atom     6 has atomic number  6 and mass  12.00000
 Atom     7 has atomic number  6 and mass  12.00000
 Atom     8 has atomic number  8 and mass  15.99491
 Atom     9 has atomic number  8 and mass  15.99491
 Atom    10 has atomic number 16 and mass  31.97207
 Atom    11 has atomic number  7 and mass  14.00307
 Atom    12 has atomic number  8 and mass  15.99491
 Atom    13 has atomic number  1 and mass   1.00783
 Atom    14 has atomic number  1 and mass   1.00783
 Atom    15 has atomic number  1 and mass   1.00783
 Atom    16 has atomic number  1 and mass   1.00783
 Atom    17 has atomic number  1 and mass   1.00783
 Molecular mass:   182.99901 amu.
 Principal axes and moments of inertia in atomic units:
                           1         2         3
     Eigenvalues --   843.097332816.189043281.89716
           X            0.99999  -0.00299   0.00243
           Y            0.00299   1.00000  -0.00080
           Z           -0.00243   0.00081   1.00000
 This molecule is an asymmetric top.
 Rotational symmetry number  1.
 Warning -- assumption of classical behavior for rotation
           may cause significant error
 Rotational temperatures (Kelvin)      0.10273     0.03076     0.02639
 Rotational constants (GHZ):           2.14061     0.64085     0.54991
 Zero-point vibrational energy     309906.9 (Joules/Mol)
                                   74.06952 (Kcal/Mol)
 Warning -- explicit consideration of  12 degrees of freedom as
           vibrations may cause significant error
 Vibrational temperatures:     91.63   176.30   326.44   397.83   453.64
          (Kelvin)            488.37   572.86   640.60   672.35   718.56
                              751.51   783.78   834.75   875.79  1025.03
                             1045.68  1075.13  1095.31  1135.04  1200.58
                             1295.04  1323.32  1419.34  1458.04  1486.78
                             1544.05  1668.67  1725.64  1733.26  1811.94
                             1832.01  1890.08  1981.15  2035.51  2037.21
                             2177.30  2218.55  2369.28  2442.56  2448.23
                             4601.32  4649.66  4661.20  4682.64  4692.50
 
 Zero-point correction=                           0.118037 (Hartree/Particle)
 Thermal correction to Energy=                    0.124972
 Thermal correction to Enthalpy=                  0.125805
 Thermal correction to Gibbs Free Energy=         0.088627
 Sum of electronic and zero-point Energies=           -947.975793
 Sum of electronic and thermal Energies=              -947.968858
 Sum of electronic and thermal Enthalpies=            -947.968025
 Sum of electronic and thermal Free Energies=         -948.005203
 
                     E (Thermal)             CV                S
                      KCal/Mol        Cal/Mol-Kelvin    Cal/Mol-Kelvin
 Total                   78.421             30.878             88.655
 Electronic               0.000              0.000              0.000
 Translational            0.784              2.981             40.899
 Rotational               0.784              2.981             30.061
 Vibrational             76.852             24.916             17.695
 Vibration     1          0.528              1.967              4.094
 Vibration     2          0.542              1.915              2.820
 Vibration     3          0.588              1.751              1.682
 Vibration     4          0.619              1.648              1.345
 Vibration     5          0.646              1.560              1.134
 Vibration     6          0.665              1.503              1.021
 Vibration     7          0.715              1.358              0.792
 Vibration     8          0.759              1.240              0.647
 Vibration     9          0.781              1.185              0.588
 Vibration    10          0.814              1.105              0.512
 Vibration    11          0.838              1.049              0.464
 Vibration    12          0.862              0.996              0.421
                       Q            Log10(Q)             Ln(Q)
 Total Bot       0.649470D-46        -46.187441       -106.350513
 Total V=0       0.212389D+16         15.327132         35.292025
 Vib (Bot)       0.110073D-59        -59.958320       -138.059134
 Vib (Bot)    1  0.285751D+01          0.455988          1.049952
 Vib (Bot)    2  0.146503D+01          0.165847          0.381877
 Vib (Bot)    3  0.756661D+00         -0.121099         -0.278840
 Vib (Bot)    4  0.602436D+00         -0.220089         -0.506773
 Vib (Bot)    5  0.514026D+00         -0.289015         -0.665482
 Vib (Bot)    6  0.468626D+00         -0.329174         -0.757951
 Vib (Bot)    7  0.379798D+00         -0.420448         -0.968117
 Vib (Bot)    8  0.324511D+00         -0.488771         -1.125437
 Vib (Bot)    9  0.302214D+00         -0.519685         -1.196619
 Vib (Bot)   10  0.273105D+00         -0.563670         -1.297899
 Vib (Bot)   11  0.254443D+00         -0.594410         -1.368679
 Vib (Bot)   12  0.237634D+00         -0.624091         -1.437022
 Vib (V=0)       0.359959D+02          1.556252          3.583404
 Vib (V=0)    1  0.340093D+01          0.531597          1.224048
 Vib (V=0)    2  0.204800D+01          0.311331          0.716866
 Vib (V=0)    3  0.140694D+01          0.148275          0.341416
 Vib (V=0)    4  0.128290D+01          0.108192          0.249122
 Vib (V=0)    5  0.121709D+01          0.085324          0.196465
 Vib (V=0)    6  0.118528D+01          0.073821          0.169980
 Vib (V=0)    7  0.112789D+01          0.052267          0.120349
 Vib (V=0)    8  0.109608D+01          0.039841          0.091737
 Vib (V=0)    9  0.108424D+01          0.035124          0.080877
 Vib (V=0)   10  0.106972D+01          0.029272          0.067401
 Vib (V=0)   11  0.106102D+01          0.025723          0.059229
 Vib (V=0)   12  0.105360D+01          0.022675          0.052210
 Electronic      0.100000D+01          0.000000          0.000000
 Translational   0.712112D+08          7.852548         18.081161
 Rotational      0.828573D+06          5.918331         13.627460
 ***** Axes restored to original set *****
 -------------------------------------------------------------------
 Center     Atomic                   Forces (Hartrees/Bohr)
 Number     Number              X              Y              Z
 -------------------------------------------------------------------
      1        6          -0.000002398   -0.000013426    0.000014634
      2        6           0.000003676   -0.000002945   -0.000013899
      3        6           0.000000194    0.000002360   -0.000003893
      4        6          -0.000003910   -0.000000319   -0.000000590
      5        6          -0.000004139    0.000004141   -0.000003245
      6        6           0.000011068    0.000028901   -0.000025737
      7        6          -0.000009555   -0.000036088    0.000028570
      8        8          -0.000032234    0.000037254   -0.000012789
      9        8           0.000021125   -0.000005111    0.000021170
     10       16           0.000014173   -0.000042345   -0.000053691
     11        7          -0.000003170    0.000051005    0.000036116
     12        8          -0.000006309   -0.000022736    0.000027735
     13        1           0.000004825    0.000003463   -0.000005327
     14        1           0.000002698   -0.000002625   -0.000001836
     15        1          -0.000000640   -0.000005253   -0.000001381
     16        1          -0.000003463   -0.000007132    0.000001147
     17        1           0.000008057    0.000010856   -0.000006984
 -------------------------------------------------------------------
 Cartesian Forces:  Max     0.000053691 RMS     0.000019078
 FormGI is forming the generalized inverse of G from B-inverse, IUseBI=4.

 ----------------------------------------------------------------------

 Electric dipole moment (input orientation):
 (Debye = 10**-18 statcoulomb cm , SI units = C m)
                  (au)            (Debye)         (10**-30 SI)
   Tot        0.375558D+01      0.954573D+01      0.318411D+02
   x         -0.824611D+00     -0.209595D+01     -0.699134D+01
   y         -0.350008D+01     -0.889630D+01     -0.296749D+02
   z          0.108345D+01      0.275387D+01      0.918591D+01

 Dipole polarizability, Alpha (input orientation).
 (esu units = cm**3 , SI units = C**2 m**2 J**-1)
 Alpha(0;0):
               (au)            (10**-24 esu)      (10**-40 SI)
   iso        0.122686D+03      0.181802D+02      0.202282D+02
   aniso      0.108944D+03      0.161438D+02      0.179624D+02
   xx         0.632547D+02      0.937338D+01      0.104293D+02
   yx         0.847675D+01      0.125613D+01      0.139763D+01
   yy         0.163658D+03      0.242517D+02      0.269836D+02
   zx        -0.227987D+02     -0.337841D+01     -0.375899D+01
   zy        -0.242666D+02     -0.359594D+01     -0.400102D+01
   zz         0.141145D+03      0.209155D+02      0.232716D+02

 ----------------------------------------------------------------------

 Dipole orientation:
     6          6.32732936         -2.77201175          3.17595952
     6          6.40780583         -0.65996427          4.71831758
     6          5.94326363          1.73063859          3.69278139
     6          5.40920179          2.03531283          1.13809685
     6          5.36075269         -0.09313699         -0.38637644
     6          5.81067741         -2.51098608          0.59019521
     6          5.65705464         -4.68067858         -1.06644891
     8          3.97568944         -1.75310968         -6.98924382
     8          8.41017853         -1.33959242         -5.37628312
    16          5.76671780         -1.87103377         -4.94549827
     7          5.50872349         -4.63855688         -3.50187510
     8          4.69626585          0.20582643         -2.88569036
     1          6.66847434         -4.64404466          3.94404038
     1          6.81952910         -0.85847362          6.71520721
     1          6.00015498          3.38483720          4.90286393
     1          5.03712429          3.87712009          0.32328084
     1          5.63588413         -6.55340856         -0.21015364

 Electric dipole moment (dipole orientation):
 (Debye = 10**-18 statcoulomb cm , SI units = C m)
                  (au)            (Debye)         (10**-30 SI)
   Tot        0.375558D+01      0.954573D+01      0.318411D+02
   x          0.000000D+00      0.000000D+00      0.000000D+00
   y          0.000000D+00      0.000000D+00      0.000000D+00
   z          0.375558D+01      0.954573D+01      0.318411D+02

 Dipole polarizability, Alpha (dipole orientation).
 (esu units = cm**3 , SI units = C**2 m**2 J**-1)
 Alpha(0;0):
               (au)            (10**-24 esu)      (10**-40 SI)
   iso        0.122686D+03      0.181802D+02      0.202282D+02
   aniso      0.108944D+03      0.161438D+02      0.179624D+02
   xx         0.590058D+02      0.874375D+01      0.972874D+01
   yx        -0.418733D+01     -0.620498D+00     -0.690397D+00
   yy         0.132702D+03      0.196644D+02      0.218795D+02
   zx         0.133313D+02      0.197549D+01      0.219803D+01
   zy         0.155992D+02      0.231156D+01      0.257195D+01
   zz         0.176350D+03      0.261324D+02      0.290763D+02

 ----------------------------------------------------------------------

 This type of calculation cannot be archived.


 LIFE IS SO UNCERTAIN - EAT DESSERT FIRST.
 Job cpu time:       0 days  0 hours  0 minutes  1.5 seconds.
 Elapsed time:       0 days  0 hours  0 minutes  0.4 seconds.
 File lengths (MBytes):  RWF=      6 Int=      0 D2E=      0 Chk=      2 Scr=      1
 Normal termination of Gaussian 16 at Sat Apr  4 18:13:10 2020.
