 Entering Gaussian System, Link 0=g16
 Initial command:
 /apps/cent7/gaussian/g16-A.03/g16-haswell/g16/l1.exe "/scratch/brown/finej/0051_imine_mechanism/ts_631gd/cyclic_complete_2/new_logs_2/Gau-213478.inp" -scrdir="/scratch/brown/finej/0051_imine_mechanism/ts_631gd/cyclic_complete_2/new_logs_2/"
 Entering Link 1 = /apps/cent7/gaussian/g16-A.03/g16-haswell/g16/l1.exe PID=    213479.
  
 Copyright (c) 1988,1990,1992,1993,1995,1998,2003,2009,2016,
            Gaussian, Inc.  All Rights Reserved.
  
 This is part of the Gaussian(R) 16 program.  It is based on
 the Gaussian(R) 09 system (copyright 2009, Gaussian, Inc.),
 the Gaussian(R) 03 system (copyright 2003, Gaussian, Inc.),
 the Gaussian(R) 98 system (copyright 1998, Gaussian, Inc.),
 the Gaussian(R) 94 system (copyright 1995, Gaussian, Inc.),
 the Gaussian 92(TM) system (copyright 1992, Gaussian, Inc.),
 the Gaussian 90(TM) system (copyright 1990, Gaussian, Inc.),
 the Gaussian 88(TM) system (copyright 1988, Gaussian, Inc.),
 the Gaussian 86(TM) system (copyright 1986, Carnegie Mellon
 University), and the Gaussian 82(TM) system (copyright 1983,
 Carnegie Mellon University). Gaussian is a federally registered
 trademark of Gaussian, Inc.
  
 This software contains proprietary and confidential information,
 including trade secrets, belonging to Gaussian, Inc.
  
 This software is provided under written license and may be
 used, copied, transmitted, or stored only in accord with that
 written license.
  
 The following legend is applicable only to US Government
 contracts under FAR:
  
                    RESTRICTED RIGHTS LEGEND
  
 Use, reproduction and disclosure by the US Government is
 subject to restrictions as set forth in subparagraphs (a)
 and (c) of the Commercial Computer Software - Restricted
 Rights clause in FAR 52.227-19.
  
 Gaussian, Inc.
 340 Quinnipiac St., Bldg. 40, Wallingford CT 06492
  
  
 ---------------------------------------------------------------
 Warning -- This program may not be used in any manner that
 competes with the business of Gaussian, Inc. or will provide
 assistance to any competitor of Gaussian, Inc.  The licensee
 of this program is prohibited from giving any competitor of
 Gaussian, Inc. access to this program.  By using this program,
 the user acknowledges that Gaussian, Inc. is engaged in the
 business of creating and licensing software in the field of
 computational chemistry and represents and warrants to the
 licensee that it is not a competitor of Gaussian, Inc. and that
 it will not use this program in any manner prohibited above.
 ---------------------------------------------------------------
  

 Cite this work as:
 Gaussian 16, Revision A.03,
 M. J. Frisch, G. W. Trucks, H. B. Schlegel, G. E. Scuseria, 
 M. A. Robb, J. R. Cheeseman, G. Scalmani, V. Barone, 
 G. A. Petersson, H. Nakatsuji, X. Li, M. Caricato, A. V. Marenich, 
 J. Bloino, B. G. Janesko, R. Gomperts, B. Mennucci, H. P. Hratchian, 
 J. V. Ortiz, A. F. Izmaylov, J. L. Sonnenberg, D. Williams-Young, 
 F. Ding, F. Lipparini, F. Egidi, J. Goings, B. Peng, A. Petrone, 
 T. Henderson, D. Ranasinghe, V. G. Zakrzewski, J. Gao, N. Rega, 
 G. Zheng, W. Liang, M. Hada, M. Ehara, K. Toyota, R. Fukuda, 
 J. Hasegawa, M. Ishida, T. Nakajima, Y. Honda, O. Kitao, H. Nakai, 
 T. Vreven, K. Throssell, J. A. Montgomery, Jr., J. E. Peralta, 
 F. Ogliaro, M. J. Bearpark, J. J. Heyd, E. N. Brothers, K. N. Kudin, 
 V. N. Staroverov, T. A. Keith, R. Kobayashi, J. Normand, 
 K. Raghavachari, A. P. Rendell, J. C. Burant, S. S. Iyengar, 
 J. Tomasi, M. Cossi, J. M. Millam, M. Klene, C. Adamo, R. Cammi, 
 J. W. Ochterski, R. L. Martin, K. Morokuma, O. Farkas, 
 J. B. Foresman, and D. J. Fox, Gaussian, Inc., Wallingford CT, 2016.
 
 ******************************************
 Gaussian 16:  ES64L-G16RevA.03 25-Dec-2016
                 4-Apr-2020 
 ******************************************
 %nprocshared=4
 Will use up to    4 processors via shared memory.
 %mem=1GB
 %oldchk=chk/cyclic_6.chk
 Copying data from "chk/cyclic_6.chk" to current chk file "/scratch/brown/finej/0051_imine_mechanism/ts_631gd/cyclic_complete_2/new_logs_2/Gau-213479.chk"
 IOpt=  2 FromEx=T IUOpen= 4 IOptOp= 5 NList=   0 IFRang= 0 IUIn= 4 IUOut= 2.
 ----------------------------------------------------------------------
 # freq=readfc wb97xd/6-31g(d) scrf=solvent=dichloromethane geom=check 
 temperature=263.15
 ----------------------------------------------------------------------
 1/29=2,38=1,112=263150,172=1/1;
 2/12=2,40=1/2;
 7/8=1,25=11/16;
 99/5=2/99;
 ------------------
 Product oxadiazole
 ------------------
 Structure from the checkpoint file:  "/scratch/brown/finej/0051_imine_mechanism/ts_631gd/cyclic_complete_2/new_logs_2/Gau-213479.chk"
 Charge =  0 Multiplicity = 1
 Redundant internal coordinates found in file.  (old form).
 C,0,4.6255172573,1.6109020838,1.1282445867
 C,0,5.6408257643,2.557477288,1.1462294811
 C,0,6.224998041,2.9726930981,-0.0493288379
 C,0,5.8007412944,2.4313619473,-1.2553022375
 C,0,4.7834961073,1.4872754336,-1.250647139
 C,0,4.1675574165,1.0677331827,-0.0739984972
 C,0,3.0596903915,0.0224156762,-0.0540815961
 O,0,3.1108314537,-0.5895658079,-3.843048208
 O,0,4.7256438345,-1.419198384,-2.106438384
 S,0,3.7341634232,-0.4624007385,-2.5520716713
 N,0,2.5489344913,-0.211807157,-1.4169787674
 O,0,4.3900177519,1.0131851789,-2.5065116894
 C,0,-0.5696517416,3.7732119333,0.446589209
 C,0,-1.4750130744,4.8281689285,0.4621405839
 C,0,-2.4212344181,4.9233626727,1.4800314212
 C,0,-2.4641497728,3.960490526,2.4877029449
 C,0,-1.5640595635,2.9031584598,2.4801205964
 C,0,-0.6141357634,2.808638424,1.4574003183
 C,0,0.3259057114,1.6925433902,1.4619525031
 O,0,1.2439840184,1.5942087968,0.4716094326
 C,0,1.9149267799,0.4702257127,0.7935333824
 N,0,1.4702184957,-0.0823422303,1.87093743
 N,0,0.4276944928,0.7183223115,2.3136999292
 H,0,4.1704220269,1.2875608856,2.0604724277
 H,0,5.9755503668,2.9702700536,2.0915890538
 H,0,7.0176174553,3.7132666634,-0.0444416357
 H,0,6.2430920637,2.7246239247,-2.2007449262
 H,0,3.4391338839,-0.9026202909,0.3981557082
 H,0,1.8569030728,-0.9577969114,-1.4635921734
 H,0,0.167706696,3.6980637876,-0.3456853791
 H,0,-1.4407868788,5.5767065605,-0.3227478824
 H,0,-3.1265517353,5.7484701085,1.488692707
 H,0,-3.201075416,4.033772155,3.2809096189
 H,0,-1.5892229556,2.1484702256,3.2591507123
 Recover connectivity data from disk.
                           ----------------------------
                           !    Current Parameters    !
                           ! (Angstroms and Degrees)  !
 --------------------------                            --------------------------
 ! Name  Definition              Value          Derivative Info.                !
 --------------------------------------------------------------------------------
 ! R1    R(1,2)                  1.3882         estimate D2E/DX2                !
 ! R2    R(1,6)                  1.3965         estimate D2E/DX2                !
 ! R3    R(1,24)                 1.0866         estimate D2E/DX2                !
 ! R4    R(2,3)                  1.3939         estimate D2E/DX2                !
 ! R5    R(2,25)                 1.0845         estimate D2E/DX2                !
 ! R6    R(3,4)                  1.3883         estimate D2E/DX2                !
 ! R7    R(3,26)                 1.0848         estimate D2E/DX2                !
 ! R8    R(4,5)                  1.3878         estimate D2E/DX2                !
 ! R9    R(4,27)                 1.0842         estimate D2E/DX2                !
 ! R10   R(5,6)                  1.3928         estimate D2E/DX2                !
 ! R11   R(5,12)                 1.3989         estimate D2E/DX2                !
 ! R12   R(6,7)                  1.5233         estimate D2E/DX2                !
 ! R13   R(7,11)                 1.4742         estimate D2E/DX2                !
 ! R14   R(7,21)                 1.4931         estimate D2E/DX2                !
 ! R15   R(7,28)                 1.0974         estimate D2E/DX2                !
 ! R16   R(8,10)                 1.4392         estimate D2E/DX2                !
 ! R17   R(9,10)                 1.4481         estimate D2E/DX2                !
 ! R18   R(10,11)                1.6601         estimate D2E/DX2                !
 ! R19   R(10,12)                1.6154         estimate D2E/DX2                !
 ! R20   R(11,29)                1.0186         estimate D2E/DX2                !
 ! R21   R(13,14)                1.3903         estimate D2E/DX2                !
 ! R22   R(13,18)                1.3979         estimate D2E/DX2                !
 ! R23   R(13,30)                1.0849         estimate D2E/DX2                !
 ! R24   R(14,15)                1.393          estimate D2E/DX2                !
 ! R25   R(14,31)                1.0851         estimate D2E/DX2                !
 ! R26   R(15,16)                1.3944         estimate D2E/DX2                !
 ! R27   R(15,32)                1.0855         estimate D2E/DX2                !
 ! R28   R(16,17)                1.3886         estimate D2E/DX2                !
 ! R29   R(16,33)                1.0852         estimate D2E/DX2                !
 ! R30   R(17,18)                1.399          estimate D2E/DX2                !
 ! R31   R(17,34)                1.0849         estimate D2E/DX2                !
 ! R32   R(18,19)                1.4592         estimate D2E/DX2                !
 ! R33   R(19,20)                1.354          estimate D2E/DX2                !
 ! R34   R(19,23)                1.2981         estimate D2E/DX2                !
 ! R35   R(20,21)                1.348          estimate D2E/DX2                !
 ! R36   R(21,22)                1.2899         estimate D2E/DX2                !
 ! R37   R(22,23)                1.3871         estimate D2E/DX2                !
 ! A1    A(2,1,6)              121.0785         estimate D2E/DX2                !
 ! A2    A(2,1,24)             119.8744         estimate D2E/DX2                !
 ! A3    A(6,1,24)             119.0458         estimate D2E/DX2                !
 ! A4    A(1,2,3)              119.901          estimate D2E/DX2                !
 ! A5    A(1,2,25)             119.7727         estimate D2E/DX2                !
 ! A6    A(3,2,25)             120.3262         estimate D2E/DX2                !
 ! A7    A(2,3,4)              120.0549         estimate D2E/DX2                !
 ! A8    A(2,3,26)             120.3788         estimate D2E/DX2                !
 ! A9    A(4,3,26)             119.5646         estimate D2E/DX2                !
 ! A10   A(3,4,5)              119.0991         estimate D2E/DX2                !
 ! A11   A(3,4,27)             121.8252         estimate D2E/DX2                !
 ! A12   A(5,4,27)             119.0756         estimate D2E/DX2                !
 ! A13   A(4,5,6)              122.1327         estimate D2E/DX2                !
 ! A14   A(4,5,12)             115.7033         estimate D2E/DX2                !
 ! A15   A(6,5,12)             122.1388         estimate D2E/DX2                !
 ! A16   A(1,6,5)              117.7178         estimate D2E/DX2                !
 ! A17   A(1,6,7)              119.6141         estimate D2E/DX2                !
 ! A18   A(5,6,7)              122.641          estimate D2E/DX2                !
 ! A19   A(6,7,11)             110.4212         estimate D2E/DX2                !
 ! A20   A(6,7,21)             111.0516         estimate D2E/DX2                !
 ! A21   A(6,7,28)             109.4127         estimate D2E/DX2                !
 ! A22   A(11,7,21)            107.8689         estimate D2E/DX2                !
 ! A23   A(11,7,28)            111.5229         estimate D2E/DX2                !
 ! A24   A(21,7,28)            106.4974         estimate D2E/DX2                !
 ! A25   A(8,10,9)             120.9431         estimate D2E/DX2                !
 ! A26   A(8,10,11)            108.5083         estimate D2E/DX2                !
 ! A27   A(8,10,12)            106.3705         estimate D2E/DX2                !
 ! A28   A(9,10,11)            112.2182         estimate D2E/DX2                !
 ! A29   A(9,10,12)            108.4738         estimate D2E/DX2                !
 ! A30   A(11,10,12)            97.6251         estimate D2E/DX2                !
 ! A31   A(7,11,10)            114.1264         estimate D2E/DX2                !
 ! A32   A(7,11,29)            113.2067         estimate D2E/DX2                !
 ! A33   A(10,11,29)           110.0721         estimate D2E/DX2                !
 ! A34   A(5,12,10)            116.6859         estimate D2E/DX2                !
 ! A35   A(14,13,18)           119.6554         estimate D2E/DX2                !
 ! A36   A(14,13,30)           120.22           estimate D2E/DX2                !
 ! A37   A(18,13,30)           120.1245         estimate D2E/DX2                !
 ! A38   A(13,14,15)           120.1569         estimate D2E/DX2                !
 ! A39   A(13,14,31)           119.6569         estimate D2E/DX2                !
 ! A40   A(15,14,31)           120.1862         estimate D2E/DX2                !
 ! A41   A(14,15,16)           120.117          estimate D2E/DX2                !
 ! A42   A(14,15,32)           119.942          estimate D2E/DX2                !
 ! A43   A(16,15,32)           119.941          estimate D2E/DX2                !
 ! A44   A(15,16,17)           120.1259         estimate D2E/DX2                !
 ! A45   A(15,16,33)           120.1649         estimate D2E/DX2                !
 ! A46   A(17,16,33)           119.7092         estimate D2E/DX2                !
 ! A47   A(16,17,18)           119.707          estimate D2E/DX2                !
 ! A48   A(16,17,34)           120.7114         estimate D2E/DX2                !
 ! A49   A(18,17,34)           119.5816         estimate D2E/DX2                !
 ! A50   A(13,18,17)           120.2378         estimate D2E/DX2                !
 ! A51   A(13,18,19)           120.6315         estimate D2E/DX2                !
 ! A52   A(17,18,19)           119.1307         estimate D2E/DX2                !
 ! A53   A(18,19,20)           119.3449         estimate D2E/DX2                !
 ! A54   A(18,19,23)           128.7998         estimate D2E/DX2                !
 ! A55   A(20,19,23)           111.8551         estimate D2E/DX2                !
 ! A56   A(19,20,21)           102.9068         estimate D2E/DX2                !
 ! A57   A(7,21,20)            119.7422         estimate D2E/DX2                !
 ! A58   A(7,21,22)            127.5889         estimate D2E/DX2                !
 ! A59   A(20,21,22)           112.6472         estimate D2E/DX2                !
 ! A60   A(21,22,23)           106.1686         estimate D2E/DX2                !
 ! A61   A(19,23,22)           106.4221         estimate D2E/DX2                !
 ! D1    D(6,1,2,3)             -0.4173         estimate D2E/DX2                !
 ! D2    D(6,1,2,25)           179.5865         estimate D2E/DX2                !
 ! D3    D(24,1,2,3)          -179.9982         estimate D2E/DX2                !
 ! D4    D(24,1,2,25)            0.0056         estimate D2E/DX2                !
 ! D5    D(2,1,6,5)              1.3278         estimate D2E/DX2                !
 ! D6    D(2,1,6,7)            179.4851         estimate D2E/DX2                !
 ! D7    D(24,1,6,5)          -179.0879         estimate D2E/DX2                !
 ! D8    D(24,1,6,7)            -0.9305         estimate D2E/DX2                !
 ! D9    D(1,2,3,4)             -0.5981         estimate D2E/DX2                !
 ! D10   D(1,2,3,26)           179.8841         estimate D2E/DX2                !
 ! D11   D(25,2,3,4)           179.3981         estimate D2E/DX2                !
 ! D12   D(25,2,3,26)           -0.1197         estimate D2E/DX2                !
 ! D13   D(2,3,4,5)              0.6518         estimate D2E/DX2                !
 ! D14   D(2,3,4,27)          -179.2571         estimate D2E/DX2                !
 ! D15   D(26,3,4,5)          -179.8264         estimate D2E/DX2                !
 ! D16   D(26,3,4,27)            0.2647         estimate D2E/DX2                !
 ! D17   D(3,4,5,6)              0.3077         estimate D2E/DX2                !
 ! D18   D(3,4,5,12)           178.515          estimate D2E/DX2                !
 ! D19   D(27,4,5,6)          -179.7809         estimate D2E/DX2                !
 ! D20   D(27,4,5,12)           -1.5735         estimate D2E/DX2                !
 ! D21   D(4,5,6,1)             -1.2817         estimate D2E/DX2                !
 ! D22   D(4,5,6,7)           -179.3793         estimate D2E/DX2                !
 ! D23   D(12,5,6,1)          -179.3741         estimate D2E/DX2                !
 ! D24   D(12,5,6,7)             2.5284         estimate D2E/DX2                !
 ! D25   D(4,5,12,10)          154.0788         estimate D2E/DX2                !
 ! D26   D(6,5,12,10)          -27.714          estimate D2E/DX2                !
 ! D27   D(1,6,7,11)           168.6918         estimate D2E/DX2                !
 ! D28   D(1,6,7,21)            49.0789         estimate D2E/DX2                !
 ! D29   D(1,6,7,28)           -68.1961         estimate D2E/DX2                !
 ! D30   D(5,6,7,11)           -13.2455         estimate D2E/DX2                !
 ! D31   D(5,6,7,21)          -132.8583         estimate D2E/DX2                !
 ! D32   D(5,6,7,28)           109.8667         estimate D2E/DX2                !
 ! D33   D(6,7,11,10)           48.4571         estimate D2E/DX2                !
 ! D34   D(6,7,11,29)          175.4114         estimate D2E/DX2                !
 ! D35   D(21,7,11,10)         169.9745         estimate D2E/DX2                !
 ! D36   D(21,7,11,29)         -63.0712         estimate D2E/DX2                !
 ! D37   D(28,7,11,10)         -73.4183         estimate D2E/DX2                !
 ! D38   D(28,7,11,29)          53.536          estimate D2E/DX2                !
 ! D39   D(6,7,21,20)           61.108          estimate D2E/DX2                !
 ! D40   D(6,7,21,22)         -117.0663         estimate D2E/DX2                !
 ! D41   D(11,7,21,20)         -60.0172         estimate D2E/DX2                !
 ! D42   D(11,7,21,22)         121.8086         estimate D2E/DX2                !
 ! D43   D(28,7,21,20)        -179.8518         estimate D2E/DX2                !
 ! D44   D(28,7,21,22)           1.9739         estimate D2E/DX2                !
 ! D45   D(8,10,11,7)         -176.2887         estimate D2E/DX2                !
 ! D46   D(8,10,11,29)          55.151          estimate D2E/DX2                !
 ! D47   D(9,10,11,7)           47.4536         estimate D2E/DX2                !
 ! D48   D(9,10,11,29)         -81.1068         estimate D2E/DX2                !
 ! D49   D(12,10,11,7)         -66.126          estimate D2E/DX2                !
 ! D50   D(12,10,11,29)        165.3137         estimate D2E/DX2                !
 ! D51   D(8,10,12,5)          165.6488         estimate D2E/DX2                !
 ! D52   D(9,10,12,5)          -62.8091         estimate D2E/DX2                !
 ! D53   D(11,10,12,5)          53.7398         estimate D2E/DX2                !
 ! D54   D(18,13,14,15)          0.0147         estimate D2E/DX2                !
 ! D55   D(18,13,14,31)       -179.973          estimate D2E/DX2                !
 ! D56   D(30,13,14,15)        179.9991         estimate D2E/DX2                !
 ! D57   D(30,13,14,31)          0.0114         estimate D2E/DX2                !
 ! D58   D(14,13,18,17)         -0.0097         estimate D2E/DX2                !
 ! D59   D(14,13,18,19)       -179.9975         estimate D2E/DX2                !
 ! D60   D(30,13,18,17)       -179.9941         estimate D2E/DX2                !
 ! D61   D(30,13,18,19)          0.0181         estimate D2E/DX2                !
 ! D62   D(13,14,15,16)         -0.0045         estimate D2E/DX2                !
 ! D63   D(13,14,15,32)       -179.9926         estimate D2E/DX2                !
 ! D64   D(31,14,15,16)        179.9831         estimate D2E/DX2                !
 ! D65   D(31,14,15,32)         -0.0049         estimate D2E/DX2                !
 ! D66   D(14,15,16,17)         -0.0108         estimate D2E/DX2                !
 ! D67   D(14,15,16,33)       -179.9871         estimate D2E/DX2                !
 ! D68   D(32,15,16,17)        179.9772         estimate D2E/DX2                !
 ! D69   D(32,15,16,33)          0.0009         estimate D2E/DX2                !
 ! D70   D(15,16,17,18)          0.0157         estimate D2E/DX2                !
 ! D71   D(15,16,17,34)       -179.9731         estimate D2E/DX2                !
 ! D72   D(33,16,17,18)        179.9922         estimate D2E/DX2                !
 ! D73   D(33,16,17,34)          0.0034         estimate D2E/DX2                !
 ! D74   D(16,17,18,13)         -0.0055         estimate D2E/DX2                !
 ! D75   D(16,17,18,19)        179.9825         estimate D2E/DX2                !
 ! D76   D(34,17,18,13)        179.9834         estimate D2E/DX2                !
 ! D77   D(34,17,18,19)         -0.0286         estimate D2E/DX2                !
 ! D78   D(13,18,19,20)         -0.2462         estimate D2E/DX2                !
 ! D79   D(13,18,19,23)        179.9006         estimate D2E/DX2                !
 ! D80   D(17,18,19,20)        179.7659         estimate D2E/DX2                !
 ! D81   D(17,18,19,23)         -0.0873         estimate D2E/DX2                !
 ! D82   D(18,19,20,21)       -179.7702         estimate D2E/DX2                !
 ! D83   D(23,19,20,21)          0.1065         estimate D2E/DX2                !
 ! D84   D(18,19,23,22)        179.7241         estimate D2E/DX2                !
 ! D85   D(20,19,23,22)         -0.138          estimate D2E/DX2                !
 ! D86   D(19,20,21,7)        -178.4629         estimate D2E/DX2                !
 ! D87   D(19,20,21,22)         -0.0304         estimate D2E/DX2                !
 ! D88   D(7,21,22,23)         178.2331         estimate D2E/DX2                !
 ! D89   D(20,21,22,23)         -0.0493         estimate D2E/DX2                !
 ! D90   D(21,22,23,19)          0.1127         estimate D2E/DX2                !
 --------------------------------------------------------------------------------
                          Input orientation:                          
 ---------------------------------------------------------------------
 Center     Atomic      Atomic             Coordinates (Angstroms)
 Number     Number       Type             X           Y           Z
 ---------------------------------------------------------------------
      1          6           0        4.625517    1.610902    1.128245
      2          6           0        5.640826    2.557477    1.146229
      3          6           0        6.224998    2.972693   -0.049329
      4          6           0        5.800741    2.431362   -1.255302
      5          6           0        4.783496    1.487275   -1.250647
      6          6           0        4.167557    1.067733   -0.073998
      7          6           0        3.059690    0.022416   -0.054082
      8          8           0        3.110831   -0.589566   -3.843048
      9          8           0        4.725644   -1.419198   -2.106438
     10         16           0        3.734163   -0.462401   -2.552072
     11          7           0        2.548934   -0.211807   -1.416979
     12          8           0        4.390018    1.013185   -2.506512
     13          6           0       -0.569652    3.773212    0.446589
     14          6           0       -1.475013    4.828169    0.462141
     15          6           0       -2.421234    4.923363    1.480031
     16          6           0       -2.464150    3.960491    2.487703
     17          6           0       -1.564060    2.903158    2.480121
     18          6           0       -0.614136    2.808638    1.457400
     19          6           0        0.325906    1.692543    1.461953
     20          8           0        1.243984    1.594209    0.471609
     21          6           0        1.914927    0.470226    0.793533
     22          7           0        1.470218   -0.082342    1.870937
     23          7           0        0.427694    0.718322    2.313700
     24          1           0        4.170422    1.287561    2.060472
     25          1           0        5.975550    2.970270    2.091589
     26          1           0        7.017617    3.713267   -0.044442
     27          1           0        6.243092    2.724624   -2.200745
     28          1           0        3.439134   -0.902620    0.398156
     29          1           0        1.856903   -0.957797   -1.463592
     30          1           0        0.167707    3.698064   -0.345685
     31          1           0       -1.440787    5.576707   -0.322748
     32          1           0       -3.126552    5.748470    1.488693
     33          1           0       -3.201075    4.033772    3.280910
     34          1           0       -1.589223    2.148470    3.259151
 ---------------------------------------------------------------------
                    Distance matrix (angstroms):
                    1          2          3          4          5
     1  C    0.000000
     2  C    1.388229   0.000000
     3  C    2.408214   1.393923   0.000000
     4  C    2.781295   2.410152   1.388310   0.000000
     5  C    2.387335   2.761406   2.393232   1.387843   0.000000
     6  C    1.396477   2.424626   2.804023   2.433568   1.392802
     7  C    2.524480   3.811764   4.327047   3.841785   2.559119
     8  O    5.643588   6.418539   6.064654   4.801880   3.719089
     9  O    4.433363   5.218367   5.076266   4.087430   3.030399
    10  S    4.317155   5.141250   4.926241   3.784999   2.568276
    11  N    3.756678   4.878398   5.052222   4.193654   2.812083
    12  O    3.691095   4.158350   3.639309   2.359426   1.398850
    13  C    5.668335   6.366910   6.859594   6.728960   6.063193
    14  C    6.928995   7.500612   7.936911   7.850535   7.298229
    15  C    7.794412   8.408665   8.994520   9.016263   8.436317
    16  C    7.591579   8.334184   9.105689   9.200910   8.521762
    17  C    6.465938   7.335471   8.189772   8.271413   7.497654
    18  C    5.384875   6.267731   7.005062   6.975080   6.181743
    19  C    4.313315   5.394086   6.222704   6.156553   5.222111
    20  O    3.444737   4.551397   5.194429   4.944399   3.937734
    21  C    2.959810   4.285246   5.054649   4.810752   3.666300
    22  N    3.657127   4.988769   5.968969   5.903009   4.815163
    23  N    4.452384   5.649975   6.653933   6.673973   5.680569
    24  H    1.086605   2.147234   3.392965   3.867891   3.373316
    25  H    2.144412   1.084501   2.155402   3.394505   3.845882
    26  H    3.393711   2.156178   1.084767   2.142487   3.376576
    27  H    3.865113   3.404835   2.165746   1.084223   2.136384
    28  H    2.873731   4.168853   4.793677   4.407556   3.199603
    29  H    4.580508   5.786743   6.043935   5.204195   3.819512
    30  H    5.138170   5.786344   6.107763   5.844914   5.197312
    31  H    7.391416   7.837275   8.100611   7.950005   7.505074
    32  H    8.794542   9.336307   9.875319   9.911068   9.393116
    33  H    8.471117   9.214962  10.053220  10.206745   9.527488
    34  H    6.591869   7.543562   8.525692   8.664403   7.834986
                    6          7          8          9         10
     6  C    0.000000
     7  C    1.523304   0.000000
     8  O    4.250770   3.838412   0.000000
     9  O    3.259923   3.010950   2.512314   0.000000
    10  S    2.944484   2.632473   1.439213   1.448131   0.000000
    11  N    2.461861   1.474185   2.518778   2.582869   1.660121
    12  O    2.443273   2.960711   2.447746   2.487809   1.615418
    13  C    5.480126   5.243212   7.140082   7.843420   6.742048
    14  C    6.801979   6.627615   8.301594   9.169261   8.013184
    15  C    7.790575   7.510880   9.451524  10.206308   9.118839
    16  C    7.675278   7.244440   9.584458  10.086641   9.131286
    17  C    6.537870   6.008321   8.604429   8.903913   8.044943
    18  C    5.314181   4.852279   7.315595   7.686924   6.758940
    19  C    4.184235   3.544187   6.411464   6.463284   5.689674
    20  O    3.020289   2.458389   5.183653   5.277207   4.424170
    21  C    2.486759   1.493141   4.904206   4.458687   3.920776
    22  N    3.518677   2.498618   5.966449   5.310791   4.983262
    23  N    4.450816   3.608057   6.842174   6.525258   6.000215
    24  H    2.145763   2.702898   6.284735   4.999796   4.952600
    25  H    3.402683   4.668617   7.489924   6.201059   6.194403
    26  H    3.888774   5.411808   6.943109   5.987251   5.874136
    27  H    3.402379   4.695119   4.846862   4.413933   4.071275
    28  H    2.153096   1.097355   4.265395   2.862683   2.997445
    29  H    3.372368   2.096243   2.714727   2.975872   2.225828
    30  H    4.794920   4.686042   6.267160   7.075409   5.907387
    31  H    7.200434   7.153784   8.434018   9.494688   8.259589
    32  H    8.806550   8.569565  10.368371  11.223075  10.098124
    33  H    8.622618   8.149254  10.581408  11.026844  10.116164
    34  H    6.739317   6.091799   8.945870   9.021937   8.302132
                   11         12         13         14         15
    11  N    0.000000
    12  O    2.465213   0.000000
    13  C    5.392480   6.398193   0.000000
    14  C    6.717485   7.600367   1.390272   0.000000
    15  C    7.711369   8.807677   2.412303   1.393018   0.000000
    16  C    7.601685   8.978218   2.791118   2.415401   1.394405
    17  C    6.465842   7.993093   2.425096   2.790311   2.411670
    18  C    5.233561   6.631576   1.397898   2.410426   2.781758
    19  C    4.105685   5.720773   2.482371   3.751677   4.240908
    20  O    2.920848   4.370849   2.835129   4.225107   5.053119
    21  C    2.398645   4.160670   4.147676   5.531110   6.253319
    22  N    3.462771   5.374706   4.588588   5.896797   6.352424
    23  N    4.391214   6.246710   3.716605   4.892791   5.147209
    24  H    4.119465   4.580486   5.590293   6.852847   7.550225
    25  H    5.846141   5.242769   6.796353   7.849700   8.642602
    26  H    6.104031   4.500723   7.603378   8.580467   9.637441
    27  H    4.783693   2.540945   7.383860   8.431193   9.667115
    28  H    2.136444   3.607157   6.159230   7.549495   8.334054
    29  H    1.018617   3.374777   5.649726   6.948922   7.845726
    30  H    4.701596   5.450289   1.084916   2.151336   3.396648
    31  H    7.114922   7.719640   2.145542   1.085141   2.153636
    32  H    8.728057   9.740811   3.394902   2.151359   1.085518
    33  H    8.553228  10.012137   3.876294   3.399385   2.154689
    34  H    6.675436   8.383499   3.404381   3.875190   3.399638
                   16         17         18         19         20
    16  C    0.000000
    17  C    1.388586   0.000000
    18  C    2.410568   1.399016   0.000000
    19  C    3.739005   2.464594   1.459235   0.000000
    20  O    4.838820   3.692232   2.428833   1.354000   0.000000
    21  C    5.850510   4.568050   3.507856   2.113252   1.348012
    22  N    5.674870   4.300135   3.587940   2.151032   2.195478
    23  N    4.347953   2.961130   2.487585   1.298053   2.196999
    24  H    7.165516   5.972482   5.056616   3.911846   3.344033
    25  H    8.506820   7.549912   6.622106   5.826449   5.187061
    26  H    9.817168   8.981919   7.830552   7.150633   6.171836
    27  H    9.966191   9.104614   7.772429   7.035171   5.780173
    28  H    7.928733   6.621969   5.596824   4.190314   3.325392
    29  H    7.646815   6.493291   5.368823   4.234037   3.260891
    30  H    3.876032   3.408235   2.157191   2.704569   2.500510
    31  H    3.399715   3.875452   3.393299   4.625266   4.868191
    32  H    2.152596   3.394129   3.867276   5.326417   6.115057
    33  H    1.085176   2.144614   3.393876   4.607554   5.796740
    34  H    2.155005   1.084931   2.152422   2.665616   4.013060
                   21         22         23         24         25
    21  C    0.000000
    22  N    1.289921   0.000000
    23  N    2.141102   1.387068   0.000000
    24  H    2.713011   3.033753   3.794228   0.000000
    25  H    4.942048   5.446572   5.991603   2.467988   0.000000
    26  H    6.103849   6.989203   7.612989   4.291996   2.490095
    27  H    5.725472   6.872989   7.630485   4.951675   4.307674
    28  H    2.089076   2.592020   3.919889   2.845167   4.929544
    29  H    2.671560   3.469155   4.372636   4.776299   6.710609
    30  H    3.843115   4.571807   4.002347   5.255649   6.340429
    31  H    6.211525   6.731348   5.834893   7.454004   8.223417
    32  H    7.332095   7.434701   6.214152   8.571608   9.535730
    33  H    6.712629   6.383683   5.009558   7.960535   9.314289
    34  H    4.601613   4.032845   2.647103   5.945713   7.698334
                   26         27         28         29         30
    26  H    0.000000
    27  H    2.495385   0.000000
    28  H    5.857290   5.270044   0.000000
    29  H    7.103928   5.774277   2.443891   0.000000
    30  H    6.856548   6.426441   5.694017   5.077415   0.000000
    31  H    8.665706   8.408522   8.143403   7.407835   2.473272
    32  H   10.459289  10.514077   9.409277   8.861423   4.291998
    33  H   10.750924  10.997941   8.761885   8.544542   4.961208
    34  H    9.350936   9.564914   6.540552   6.620346   4.299173
                   31         32         33         34
    31  H    0.000000
    32  H    2.480448   0.000000
    33  H    4.297163   2.481488   0.000000
    34  H    4.960326   4.296266   2.480505   0.000000
 Stoichiometry    C15H11N3O4S
 Framework group  C1[X(C15H11N3O4S)]
 Deg. of freedom    96
 Full point group                 C1      NOp   1
 Largest Abelian subgroup         C1      NOp   1
 Largest concise Abelian subgroup C1      NOp   1
                         Standard orientation:                         
 ---------------------------------------------------------------------
 Center     Atomic      Atomic             Coordinates (Angstroms)
 Number     Number       Type             X           Y           Z
 ---------------------------------------------------------------------
      1          6           0        1.276471    2.065659    1.097653
      2          6           0        1.679908    3.301728    0.611290
      3          6           0        2.516616    3.371230   -0.501415
      4          6           0        2.955949    2.205874   -1.114878
      5          6           0        2.539609    0.980717   -0.613122
      6          6           0        1.688273    0.880427    0.484634
      7          6           0        1.235094   -0.458093    1.053358
      8          8           0        3.259450   -2.576276   -1.426297
      9          8           0        4.079936   -1.331952    0.596122
     10         16           0        3.108487   -1.519162   -0.461385
     11          7           0        1.551730   -1.549610    0.114447
     12          8           0        2.998390   -0.145547   -1.304376
     13          6           0       -3.397837    0.003767   -1.357845
     14          6           0       -4.552588    0.145630   -2.118949
     15          6           0       -5.803386    0.105105   -1.507097
     16          6           0       -5.902213   -0.078072   -0.128313
     17          6           0       -4.754286   -0.220978    0.639810
     18          6           0       -3.498638   -0.180009    0.024250
     19          6           0       -2.300599   -0.331148    0.843534
     20          8           0       -1.083302   -0.296957    0.251642
     21          6           0       -0.239364   -0.469352    1.288553
     22          7           0       -0.855600   -0.597975    2.414433
     23          7           0       -2.209344   -0.506171    2.126492
     24          1           0        0.624204    2.011985    1.965050
     25          1           0        1.341962    4.209069    1.099826
     26          1           0        2.835090    4.333000   -0.889090
     27          1           0        3.616570    2.226241   -1.974357
     28          1           0        1.707781   -0.617943    2.030703
     29          1           0        1.333891   -2.473270    0.484555
     30          1           0       -2.423163    0.035153   -1.833311
     31          1           0       -4.474382    0.287850   -3.191883
     32          1           0       -6.702745    0.216127   -2.104740
     33          1           0       -6.876205   -0.109973    0.349104
     34          1           0       -4.820138   -0.364402    1.713202
 ---------------------------------------------------------------------
 Rotational constants (GHZ):           0.4363924           0.1367984           0.1277344
 Electric field and nuclear coordinate derivatives read from checkpoint file.
 Rotating derivatives to standard orientation.
 Full mass-weighted force constant matrix:
 Low frequencies ---   -7.4242   -4.4829   -0.0217    0.0108    0.0175    3.5175
 Low frequencies ---   16.9756   28.5882   31.7900
 Diagonal vibrational polarizability:
      107.1355855     239.7553182      61.0598403
 Harmonic frequencies (cm**-1), IR intensities (KM/Mole), Raman scattering
 activities (A**4/AMU), depolarization ratios for plane and unpolarized
 incident light, reduced masses (AMU), force constants (mDyne/A),
 and normal coordinates:
                      1                      2                      3
                      A                      A                      A
 Frequencies --     16.9037                28.5755                31.6786
 Red. masses --      5.6335                 4.5809                 6.6891
 Frc consts  --      0.0009                 0.0022                 0.0040
 IR Inten    --      1.8300                 0.2827                 1.3798
  Atom  AN      X      Y      Z        X      Y      Z        X      Y      Z
     1   6    -0.09  -0.00  -0.10    -0.08  -0.05  -0.01    -0.06   0.02  -0.11
     2   6    -0.12  -0.00  -0.14    -0.13  -0.03  -0.02     0.00   0.02  -0.06
     3   6    -0.11  -0.02  -0.13    -0.13  -0.00  -0.02     0.15   0.02   0.05
     4   6    -0.05  -0.03  -0.08    -0.08   0.01  -0.01     0.21   0.02   0.10
     5   6    -0.02  -0.02  -0.03    -0.03  -0.00  -0.00     0.14   0.02   0.04
     6   6    -0.03  -0.01  -0.04    -0.03  -0.03  -0.00     0.01   0.02  -0.07
     7   6     0.00  -0.00  -0.00     0.01  -0.05  -0.01    -0.03   0.01  -0.12
     8   8     0.10  -0.03   0.10     0.10   0.02   0.01     0.12   0.02   0.01
     9   8     0.02   0.05   0.08     0.03   0.05   0.02    -0.07  -0.09   0.16
    10  16     0.05  -0.00   0.06     0.05   0.02   0.01     0.05  -0.01   0.03
    11   7     0.04  -0.02   0.03     0.04  -0.03  -0.01    -0.02   0.04  -0.15
    12   8     0.04  -0.03   0.02     0.02   0.01   0.01     0.22   0.03   0.07
    13   6     0.01   0.22   0.04     0.01  -0.17  -0.02    -0.15  -0.04  -0.01
    14   6     0.01   0.29   0.05     0.01  -0.11  -0.01    -0.19  -0.05   0.05
    15   6     0.00   0.16   0.04     0.02   0.13   0.02    -0.16  -0.03   0.12
    16   6     0.00  -0.05   0.01     0.02   0.30   0.04    -0.09  -0.00   0.13
    17   6     0.00  -0.12  -0.00     0.02   0.24   0.03    -0.05   0.01   0.07
    18   6     0.00   0.02   0.01     0.01   0.00   0.00    -0.08  -0.01   0.00
    19   6     0.00  -0.05  -0.00     0.01  -0.05  -0.01    -0.04  -0.00  -0.05
    20   8     0.00   0.03   0.01     0.01  -0.06  -0.01    -0.06   0.02  -0.08
    21   6     0.01  -0.04  -0.01     0.01  -0.08  -0.01    -0.03   0.01  -0.11
    22   7     0.00  -0.17  -0.02     0.01  -0.08  -0.01     0.00  -0.01  -0.09
    23   7     0.00  -0.17  -0.02     0.01  -0.07  -0.01    -0.00  -0.01  -0.05
    24   1    -0.10   0.01  -0.11    -0.09  -0.07  -0.02    -0.17   0.02  -0.19
    25   1    -0.17   0.00  -0.18    -0.18  -0.04  -0.03    -0.05   0.02  -0.09
    26   1    -0.14  -0.02  -0.16    -0.17   0.01  -0.02     0.20   0.02   0.10
    27   1    -0.04  -0.04  -0.07    -0.08   0.03  -0.00     0.32   0.03   0.18
    28   1     0.01   0.04   0.00     0.01  -0.04  -0.01    -0.04  -0.03  -0.12
    29   1     0.06  -0.02   0.05     0.07  -0.04  -0.02    -0.09   0.04  -0.21
    30   1     0.01   0.33   0.05     0.00  -0.35  -0.05    -0.17  -0.05  -0.06
    31   1     0.01   0.45   0.07     0.01  -0.24  -0.03    -0.25  -0.07   0.04
    32   1     0.00   0.21   0.05     0.02   0.18   0.02    -0.19  -0.04   0.16
    33   1    -0.00  -0.15  -0.00     0.03   0.48   0.06    -0.06   0.01   0.18
    34   1    -0.00  -0.28  -0.02     0.02   0.37   0.05     0.01   0.03   0.07
                      4                      5                      6
                      A                      A                      A
 Frequencies --     61.6723                70.2079               102.4478
 Red. masses --      8.4380                 7.7116                 6.0594
 Frc consts  --      0.0189                 0.0224                 0.0375
 IR Inten    --      7.8739                 2.1373                 0.1819
  Atom  AN      X      Y      Z        X      Y      Z        X      Y      Z
     1   6    -0.13  -0.11  -0.00     0.13  -0.07   0.10     0.05  -0.07   0.09
     2   6    -0.22  -0.08   0.00     0.17  -0.06   0.14    -0.05  -0.05   0.05
     3   6    -0.20  -0.02   0.02     0.07  -0.05   0.07    -0.15  -0.03  -0.02
     4   6    -0.09   0.01   0.04    -0.04  -0.04  -0.03    -0.12  -0.01  -0.03
     5   6     0.00  -0.02   0.04    -0.07  -0.04  -0.06    -0.01  -0.03   0.02
     6   6    -0.02  -0.08   0.01     0.01  -0.05  -0.00     0.05  -0.05   0.06
     7   6     0.02  -0.12  -0.03    -0.01  -0.05  -0.01     0.03  -0.05   0.02
     8   8     0.09   0.03  -0.08     0.18  -0.04   0.14     0.05  -0.01  -0.01
     9   8    -0.01  -0.10   0.04     0.09   0.29  -0.03     0.02  -0.04   0.02
    10  16     0.05  -0.03  -0.03     0.07   0.04   0.03     0.03  -0.03   0.01
    11   7     0.02  -0.05  -0.10     0.09  -0.10   0.08     0.02  -0.04  -0.01
    12   8     0.10   0.02   0.04    -0.15  -0.05  -0.10     0.03  -0.01   0.02
    13   6     0.03   0.11   0.02    -0.13   0.03  -0.06    -0.04   0.14  -0.04
    14   6     0.03   0.10   0.02    -0.17   0.06   0.01    -0.08  -0.09  -0.02
    15   6     0.02   0.00   0.00    -0.14   0.04   0.07    -0.06  -0.23   0.01
    16   6     0.02  -0.08  -0.01    -0.06  -0.00   0.07     0.00  -0.09   0.04
    17   6     0.02  -0.06  -0.00    -0.02  -0.03   0.00     0.04   0.15   0.02
    18   6     0.02   0.04   0.01    -0.05  -0.01  -0.06     0.02   0.24  -0.02
    19   6     0.03   0.08   0.01    -0.02  -0.00  -0.10     0.03   0.22  -0.04
    20   8     0.01  -0.23  -0.03    -0.02  -0.12  -0.10     0.05   0.26  -0.01
    21   6     0.02  -0.07  -0.01    -0.03  -0.05  -0.08     0.02   0.01  -0.03
    22   7     0.04   0.30   0.04    -0.04   0.09  -0.07    -0.01  -0.13  -0.06
    23   7     0.04   0.41   0.06    -0.03   0.12  -0.08     0.01   0.00  -0.07
    24   1    -0.15  -0.16  -0.02     0.20  -0.08   0.15     0.10  -0.09   0.13
    25   1    -0.31  -0.11  -0.01     0.27  -0.07   0.22    -0.06  -0.07   0.07
    26   1    -0.27   0.00   0.02     0.10  -0.05   0.10    -0.24  -0.01  -0.07
    27   1    -0.07   0.06   0.06    -0.10  -0.04  -0.08    -0.18   0.02  -0.08
    28   1     0.03  -0.15  -0.05    -0.08   0.01   0.04    -0.01  -0.10   0.03
    29   1    -0.01  -0.08  -0.17     0.20  -0.09   0.16     0.01  -0.04  -0.03
    30   1     0.03   0.19   0.03    -0.15   0.05  -0.12    -0.05   0.21  -0.07
    31   1     0.03   0.16   0.02    -0.23   0.09   0.01    -0.13  -0.19  -0.04
    32   1     0.02  -0.01   0.00    -0.17   0.06   0.13    -0.09  -0.45   0.02
    33   1     0.02  -0.15  -0.02    -0.03  -0.02   0.13     0.02  -0.18   0.07
    34   1     0.02  -0.12  -0.01     0.04  -0.06   0.00     0.09   0.23   0.03
                      7                      8                      9
                      A                      A                      A
 Frequencies --    113.6664               133.8835               175.3178
 Red. masses --      7.3133                 5.2013                 6.6385
 Frc consts  --      0.0557                 0.0549                 0.1202
 IR Inten    --      3.4050                 2.8740                 2.9864
  Atom  AN      X      Y      Z        X      Y      Z        X      Y      Z
     1   6    -0.02  -0.07  -0.05    -0.20  -0.00  -0.14    -0.15  -0.02  -0.07
     2   6     0.07  -0.06   0.03    -0.11  -0.01  -0.07    -0.10  -0.01  -0.02
     3   6     0.10  -0.03   0.06     0.12  -0.02   0.10     0.05  -0.01   0.10
     4   6     0.04  -0.02  -0.01     0.17  -0.02   0.14     0.07  -0.00   0.10
     5   6    -0.04  -0.02  -0.09     0.00  -0.01   0.03    -0.03  -0.00   0.00
     6   6    -0.06  -0.05  -0.11    -0.10  -0.01  -0.05    -0.06  -0.01  -0.02
     7   6    -0.05  -0.07  -0.13    -0.02  -0.00   0.02     0.02  -0.01   0.01
     8   8     0.21  -0.01   0.06    -0.05  -0.02  -0.03    -0.05  -0.04   0.07
     9   8    -0.20   0.20   0.10     0.20   0.04  -0.17    -0.20   0.12   0.05
    10  16    -0.02   0.04  -0.03     0.05  -0.00  -0.02    -0.12   0.01   0.00
    11   7    -0.10  -0.03  -0.20     0.11  -0.07   0.14    -0.11  -0.01  -0.03
    12   8    -0.04  -0.02  -0.11    -0.08  -0.02  -0.02    -0.14  -0.02  -0.05
    13   6     0.09   0.05   0.13    -0.00   0.07   0.03     0.06   0.01  -0.12
    14   6     0.16  -0.04   0.02     0.01  -0.02  -0.00    -0.02   0.00  -0.00
    15   6     0.11  -0.09  -0.10    -0.00  -0.08  -0.03     0.04  -0.01   0.13
    16   6    -0.01  -0.02  -0.10    -0.02  -0.02  -0.02     0.16  -0.02   0.13
    17   6    -0.08   0.07   0.02    -0.03   0.07   0.01     0.24  -0.01   0.01
    18   6    -0.03   0.09   0.13    -0.02   0.10   0.03     0.17   0.01  -0.12
    19   6    -0.05   0.07   0.15    -0.03   0.07   0.03     0.14   0.01  -0.11
    20   8    -0.08   0.04   0.08    -0.03   0.02   0.02     0.16   0.00  -0.02
    21   6    -0.02  -0.05   0.00    -0.02  -0.05   0.01     0.07  -0.00   0.04
    22   7     0.05  -0.07   0.04    -0.02  -0.04   0.01     0.01  -0.00   0.00
    23   7     0.02   0.01   0.14    -0.02   0.03   0.03     0.04   0.01  -0.10
    24   1    -0.03  -0.08  -0.06    -0.33   0.01  -0.23    -0.22  -0.03  -0.12
    25   1     0.11  -0.07   0.09    -0.20  -0.00  -0.14    -0.17  -0.02  -0.06
    26   1     0.17  -0.03   0.14     0.24  -0.02   0.19     0.14  -0.01   0.17
    27   1     0.07  -0.00   0.01     0.30  -0.03   0.25     0.15   0.01   0.15
    28   1     0.03  -0.11  -0.17    -0.03   0.13   0.05     0.12  -0.02  -0.03
    29   1    -0.09  -0.04  -0.22     0.22  -0.05   0.24    -0.11  -0.01  -0.01
    30   1     0.13   0.07   0.22     0.00   0.10   0.05     0.02   0.02  -0.21
    31   1     0.26  -0.08   0.02     0.03  -0.06  -0.01    -0.14   0.01  -0.01
    32   1     0.15  -0.17  -0.19     0.00  -0.17  -0.06    -0.02  -0.02   0.21
    33   1    -0.06  -0.05  -0.19    -0.03  -0.05  -0.05     0.21  -0.03   0.23
    34   1    -0.18   0.10   0.02    -0.05   0.10   0.01     0.36  -0.02   0.01
                     10                     11                     12
                      A                      A                      A
 Frequencies --    236.8785               253.5959               266.1637
 Red. masses --      6.7191                 8.3721                 5.6747
 Frc consts  --      0.2221                 0.3172                 0.2369
 IR Inten    --      1.0926                 3.3943                 4.2911
  Atom  AN      X      Y      Z        X      Y      Z        X      Y      Z
     1   6    -0.01  -0.12   0.03    -0.02   0.02  -0.02     0.15  -0.00   0.07
     2   6    -0.16  -0.08   0.03     0.03  -0.01  -0.09    -0.09  -0.02  -0.18
     3   6    -0.11  -0.02   0.08     0.07  -0.06  -0.06    -0.04  -0.04  -0.14
     4   6     0.05   0.02   0.09     0.03  -0.10  -0.00     0.19  -0.07   0.10
     5   6     0.10  -0.03   0.01    -0.05  -0.04   0.05     0.17  -0.03   0.15
     6   6     0.11  -0.06   0.01    -0.03  -0.02   0.05     0.20  -0.05   0.19
     7   6     0.02  -0.01  -0.03    -0.00  -0.04   0.06     0.03  -0.07   0.10
     8   8    -0.04  -0.15   0.11     0.30   0.27  -0.29     0.00   0.03  -0.03
     9   8     0.04   0.10  -0.08    -0.07  -0.09   0.08    -0.06   0.18  -0.05
    10  16     0.01  -0.02  -0.02     0.02  -0.01  -0.02    -0.03   0.05  -0.05
    11   7    -0.00   0.01  -0.04    -0.00  -0.15   0.09    -0.03   0.03  -0.05
    12   8     0.03  -0.03  -0.08    -0.18  -0.04   0.05    -0.02   0.02  -0.03
    13   6    -0.02  -0.19   0.02    -0.02  -0.13  -0.05    -0.04   0.05  -0.01
    14   6     0.01  -0.02   0.01    -0.03  -0.02  -0.01    -0.05   0.01  -0.02
    15   6     0.01   0.17  -0.00    -0.02   0.13   0.02    -0.05  -0.04  -0.03
    16   6    -0.03  -0.00  -0.03    -0.00  -0.01   0.00    -0.04   0.01  -0.03
    17   6    -0.06  -0.18  -0.02     0.01  -0.13  -0.03    -0.03   0.05  -0.02
    18   6    -0.04  -0.14   0.02     0.00  -0.08  -0.04    -0.02   0.03  -0.01
    19   6    -0.01   0.10   0.03    -0.00   0.10   0.01    -0.02  -0.05   0.01
    20   8    -0.02   0.31   0.00     0.02   0.21   0.08     0.01  -0.10   0.05
    21   6     0.02   0.18  -0.05    -0.01   0.07   0.08    -0.00  -0.04   0.08
    22   7     0.06   0.08  -0.04    -0.06   0.02   0.06    -0.05  -0.02   0.06
    23   7     0.04   0.03   0.01    -0.05   0.06   0.01    -0.05  -0.03   0.01
    24   1    -0.03  -0.21   0.01    -0.03   0.11  -0.03     0.15   0.06   0.08
    25   1    -0.29  -0.11  -0.00     0.03   0.02  -0.15    -0.30   0.01  -0.37
    26   1    -0.19   0.01   0.09     0.11  -0.08  -0.08    -0.20  -0.05  -0.29
    27   1     0.08   0.12   0.11     0.04  -0.19   0.00     0.21  -0.14   0.12
    28   1    -0.03  -0.07  -0.02     0.02  -0.02   0.05     0.01  -0.22   0.08
    29   1    -0.05  -0.01  -0.10     0.22  -0.10   0.36    -0.10  -0.01  -0.21
    30   1    -0.01  -0.26   0.03    -0.03  -0.18  -0.07    -0.05   0.08  -0.02
    31   1     0.05   0.02   0.01    -0.04   0.00  -0.01    -0.04   0.01  -0.02
    32   1     0.03   0.40   0.00    -0.02   0.30   0.05    -0.06  -0.10  -0.04
    33   1    -0.05   0.05  -0.05     0.01   0.01   0.02    -0.04   0.00  -0.02
    34   1    -0.10  -0.24  -0.03     0.02  -0.19  -0.04    -0.05   0.07  -0.02
                     13                     14                     15
                      A                      A                      A
 Frequencies --    294.7094               342.1681               356.0930
 Red. masses --      7.2805                 6.0274                10.1166
 Frc consts  --      0.3726                 0.4158                 0.7558
 IR Inten    --      2.2989                 4.7274                 3.4269
  Atom  AN      X      Y      Z        X      Y      Z        X      Y      Z
     1   6    -0.05  -0.04  -0.08     0.01   0.10   0.06    -0.02   0.24   0.09
     2   6     0.09  -0.05   0.03     0.06   0.05  -0.06    -0.04   0.23   0.01
     3   6     0.06  -0.04   0.01     0.03  -0.03  -0.09    -0.02   0.12   0.01
     4   6    -0.07  -0.04  -0.07    -0.01  -0.10   0.03    -0.03   0.06   0.10
     5   6    -0.05  -0.05  -0.07    -0.06  -0.02   0.13    -0.07   0.05   0.09
     6   6    -0.09  -0.06  -0.06    -0.08   0.02   0.12    -0.05   0.17   0.12
     7   6    -0.02  -0.04   0.07    -0.12  -0.05  -0.03     0.03   0.05  -0.04
     8   8    -0.02  -0.03   0.04    -0.04  -0.01   0.03     0.33  -0.30   0.13
     9   8     0.09   0.04  -0.06     0.08   0.04  -0.06     0.07  -0.16  -0.11
    10  16     0.06   0.05  -0.04     0.01   0.02   0.01     0.04  -0.14  -0.08
    11   7    -0.00   0.13  -0.12    -0.01   0.05  -0.11    -0.06   0.06  -0.20
    12   8     0.23   0.04  -0.04    -0.02   0.03   0.09    -0.23  -0.04  -0.01
    13   6    -0.03  -0.04  -0.13     0.11  -0.08   0.03    -0.04   0.01  -0.04
    14   6    -0.09  -0.01  -0.05     0.13  -0.05   0.04    -0.07   0.01  -0.03
    15   6    -0.06   0.06   0.02     0.15   0.07   0.10    -0.07  -0.00  -0.03
    16   6     0.02  -0.01   0.01     0.09  -0.04   0.09    -0.02   0.01  -0.03
    17   6     0.07  -0.05  -0.08     0.06  -0.10   0.08    -0.00   0.01  -0.05
    18   6     0.05  -0.00  -0.11     0.01   0.02   0.02     0.01  -0.00  -0.03
    19   6    -0.01   0.07   0.03    -0.05   0.15  -0.03     0.02  -0.02   0.03
    20   8     0.05   0.04   0.20    -0.10   0.02  -0.10     0.04  -0.02   0.07
    21   6    -0.04  -0.07   0.26    -0.10  -0.14  -0.14     0.04  -0.00   0.07
    22   7    -0.19  -0.06   0.21    -0.08  -0.14  -0.12     0.02   0.00   0.07
    23   7    -0.16   0.05   0.05    -0.06   0.14  -0.04     0.02  -0.01   0.04
    24   1    -0.06  -0.03  -0.09     0.01   0.21   0.07    -0.02   0.29   0.10
    25   1     0.19  -0.05   0.11     0.10   0.10  -0.12    -0.05   0.27  -0.06
    26   1     0.15  -0.05   0.07     0.03  -0.07  -0.19     0.01   0.08  -0.07
    27   1    -0.08  -0.06  -0.07    -0.01  -0.23   0.03    -0.04   0.04   0.09
    28   1     0.15  -0.07  -0.01    -0.21  -0.15  -0.00     0.13  -0.09  -0.11
    29   1    -0.16   0.04  -0.45    -0.18   0.01  -0.32    -0.21   0.10  -0.19
    30   1    -0.06  -0.06  -0.19     0.13  -0.14   0.08    -0.06   0.03  -0.08
    31   1    -0.15  -0.01  -0.06     0.09  -0.08   0.04    -0.07   0.01  -0.03
    32   1    -0.09   0.13   0.08     0.16   0.19   0.12    -0.08  -0.01  -0.02
    33   1     0.05  -0.02   0.08     0.07  -0.06   0.04    -0.01   0.01   0.00
    34   1     0.13  -0.09  -0.08     0.12  -0.17   0.07    -0.01   0.02  -0.05
                     16                     17                     18
                      A                      A                      A
 Frequencies --    365.0167               393.7921               414.1452
 Red. masses --      8.2578                 4.8145                 2.9273
 Frc consts  --      0.6482                 0.4399                 0.2958
 IR Inten    --      0.7792                 9.5557                 0.0343
  Atom  AN      X      Y      Z        X      Y      Z        X      Y      Z
     1   6     0.03  -0.06   0.02     0.16  -0.02   0.01    -0.01  -0.00  -0.00
     2   6    -0.04  -0.05   0.02    -0.03   0.05   0.01    -0.00  -0.00   0.00
     3   6    -0.05  -0.04   0.01    -0.10   0.16  -0.03     0.00  -0.01   0.00
     4   6     0.02  -0.02   0.03     0.13   0.18   0.03    -0.01  -0.01  -0.00
     5   6     0.03  -0.04  -0.02     0.11   0.10  -0.09    -0.00  -0.01   0.00
     6   6     0.01  -0.02  -0.03     0.03   0.02  -0.14     0.00  -0.00   0.00
     7   6    -0.12   0.06  -0.03    -0.04   0.01  -0.06     0.00   0.00   0.00
     8   8     0.15  -0.00  -0.03     0.01  -0.05   0.02     0.00   0.00  -0.00
     9   8     0.08  -0.03  -0.07    -0.06  -0.06   0.03     0.00   0.00  -0.00
    10  16     0.03  -0.02  -0.02    -0.01  -0.02  -0.01     0.00   0.00   0.00
    11   7    -0.05   0.02  -0.02     0.02  -0.12   0.10    -0.00   0.01  -0.00
    12   8     0.02  -0.03  -0.04     0.00   0.01  -0.08    -0.00  -0.00  -0.00
    13   6     0.13   0.08   0.00     0.04  -0.02  -0.05     0.01   0.21   0.03
    14   6     0.13   0.06   0.05     0.01  -0.04  -0.01    -0.01  -0.20  -0.03
    15   6     0.16  -0.15   0.10     0.04   0.05   0.05     0.00  -0.01  -0.00
    16   6     0.12   0.02   0.12     0.04  -0.02   0.04     0.01   0.21   0.03
    17   6     0.11   0.10   0.10     0.05  -0.05  -0.01    -0.01  -0.20  -0.03
    18   6     0.02  -0.07  -0.04     0.02   0.05  -0.04    -0.00  -0.01   0.00
    19   6    -0.12  -0.20  -0.06    -0.05   0.08   0.03     0.00  -0.01  -0.00
    20   8    -0.14   0.05  -0.01    -0.07  -0.05   0.05     0.00   0.00  -0.00
    21   6    -0.15   0.26   0.02    -0.07  -0.11   0.03     0.00   0.01   0.00
    22   7    -0.20   0.26   0.01    -0.11  -0.12   0.03     0.00   0.01  -0.00
    23   7    -0.21  -0.18  -0.06    -0.11   0.08   0.03     0.00  -0.00  -0.00
    24   1     0.04  -0.10   0.03     0.28  -0.10   0.09    -0.01  -0.00  -0.00
    25   1    -0.06  -0.06   0.02    -0.11  -0.01   0.06    -0.00  -0.00  -0.00
    26   1    -0.10  -0.03  -0.00    -0.25   0.19  -0.06     0.01  -0.01   0.01
    27   1     0.04   0.02   0.04     0.20   0.29   0.09    -0.01  -0.01  -0.00
    28   1    -0.17   0.04  -0.01    -0.00   0.14  -0.05    -0.00  -0.00   0.00
    29   1    -0.03   0.03   0.02     0.28  -0.07   0.39    -0.01   0.01  -0.01
    30   1     0.15   0.15   0.06     0.03  -0.04  -0.05     0.02   0.47   0.07
    31   1     0.05   0.13   0.05    -0.03  -0.09  -0.02    -0.01  -0.43  -0.06
    32   1     0.14  -0.31   0.09     0.03   0.11   0.08     0.00  -0.03  -0.01
    33   1     0.10   0.07   0.10     0.05  -0.04   0.05     0.01   0.45   0.06
    34   1     0.22   0.21   0.12     0.11  -0.12  -0.01    -0.02  -0.45  -0.06
                     19                     20                     21
                      A                      A                      A
 Frequencies --    450.0261               457.2922               488.5170
 Red. masses --      5.2423                 7.9250                 5.1672
 Frc consts  --      0.6255                 0.9764                 0.7266
 IR Inten    --      2.6334                15.0491                10.3033
  Atom  AN      X      Y      Z        X      Y      Z        X      Y      Z
     1   6     0.12  -0.05   0.14    -0.05   0.04  -0.04    -0.06  -0.06  -0.09
     2   6    -0.06  -0.08  -0.03     0.13   0.03   0.07    -0.02  -0.05  -0.03
     3   6    -0.08  -0.09  -0.06    -0.06   0.05  -0.08     0.12   0.03   0.08
     4   6     0.16  -0.07   0.09    -0.02   0.03  -0.02    -0.09   0.06  -0.14
     5   6    -0.13  -0.03  -0.08     0.14   0.04   0.15     0.11   0.05   0.02
     6   6    -0.15   0.01  -0.12    -0.07   0.01  -0.04     0.24  -0.04   0.13
     7   6    -0.06   0.04  -0.11    -0.08  -0.06  -0.16    -0.01  -0.04  -0.01
     8   8    -0.06   0.11   0.03    -0.03   0.00  -0.07    -0.02   0.05   0.07
     9   8     0.12  -0.09   0.04     0.05   0.24  -0.12     0.06  -0.13   0.04
    10  16     0.03   0.06   0.08    -0.06  -0.10   0.04     0.01   0.06   0.04
    11   7    -0.02   0.10  -0.09    -0.10  -0.23  -0.04    -0.00   0.03  -0.05
    12   8    -0.12  -0.03  -0.01     0.09   0.01   0.25    -0.17  -0.00  -0.07
    13   6    -0.01   0.01  -0.08     0.00   0.03  -0.12     0.02   0.01  -0.10
    14   6    -0.06   0.01  -0.04    -0.07   0.03  -0.05    -0.03  -0.01  -0.04
    15   6    -0.05  -0.00  -0.01    -0.06  -0.03  -0.00    -0.01   0.03   0.03
    16   6     0.03   0.01  -0.01     0.05   0.02  -0.00     0.04  -0.02   0.02
    17   6     0.06   0.01  -0.07     0.11   0.02  -0.09     0.08   0.00  -0.05
    18   6     0.05  -0.00  -0.05     0.08  -0.04  -0.09     0.04   0.05  -0.06
    19   6    -0.00  -0.02   0.08    -0.04  -0.05   0.13    -0.08  -0.01   0.11
    20   8    -0.04   0.01   0.04    -0.11   0.04   0.07    -0.14  -0.03   0.03
    21   6     0.01   0.01  -0.03    -0.02   0.03  -0.05    -0.04   0.01  -0.07
    22   7     0.11   0.01   0.02     0.13   0.04   0.03     0.05  -0.02  -0.02
    23   7     0.08  -0.02   0.10     0.08  -0.05   0.16     0.01  -0.02   0.12
    24   1     0.37  -0.08   0.32    -0.13   0.08  -0.09    -0.32  -0.05  -0.29
    25   1    -0.03  -0.06  -0.06     0.23   0.03   0.15    -0.18  -0.07  -0.10
    26   1    -0.13  -0.08  -0.07    -0.20   0.05  -0.19     0.13   0.06   0.16
    27   1     0.40  -0.09   0.28    -0.13  -0.00  -0.10    -0.34   0.09  -0.33
    28   1    -0.01   0.09  -0.12    -0.07  -0.06  -0.17    -0.15  -0.18   0.04
    29   1    -0.13   0.09  -0.18     0.02  -0.17   0.22    -0.02   0.01  -0.12
    30   1    -0.04   0.03  -0.14    -0.04   0.08  -0.21    -0.00  -0.02  -0.15
    31   1    -0.09   0.02  -0.04    -0.13   0.06  -0.05    -0.09  -0.05  -0.05
    32   1    -0.07  -0.01   0.02    -0.10  -0.07   0.05    -0.03   0.04   0.07
    33   1     0.06   0.00   0.05     0.10   0.05   0.10     0.07  -0.07   0.06
    34   1     0.08   0.01  -0.06     0.16   0.05  -0.08     0.14  -0.04  -0.05
                     22                     23                     24
                      A                      A                      A
 Frequencies --    499.7890               503.8058               526.3272
 Red. masses --      6.7897                 4.3211                 4.4556
 Frc consts  --      0.9993                 0.6462                 0.7272
 IR Inten    --     29.7642                24.6784                65.7775
  Atom  AN      X      Y      Z        X      Y      Z        X      Y      Z
     1   6     0.03  -0.09  -0.08    -0.02   0.00   0.01    -0.03  -0.03   0.00
     2   6     0.02  -0.05  -0.01    -0.02  -0.00   0.05     0.09  -0.06  -0.02
     3   6     0.01   0.10  -0.01    -0.04  -0.06   0.03    -0.00   0.00  -0.09
     4   6     0.06   0.13  -0.08    -0.00  -0.04   0.00     0.03  -0.01   0.01
     5   6     0.08   0.09  -0.05     0.05  -0.05  -0.02    -0.02   0.07   0.11
     6   6     0.06  -0.04  -0.09     0.01   0.04  -0.03    -0.09  -0.05   0.02
     7   6     0.02  -0.08  -0.05     0.00   0.12   0.02    -0.02  -0.11  -0.06
     8   8     0.02   0.13   0.02     0.07   0.03  -0.06    -0.04  -0.06   0.14
     9   8     0.22  -0.00  -0.09     0.01   0.06  -0.04    -0.01  -0.11   0.01
    10  16    -0.06  -0.03   0.16    -0.03  -0.06   0.02     0.02   0.13  -0.07
    11   7    -0.17  -0.06  -0.14    -0.03   0.09   0.04    -0.03  -0.14  -0.07
    12   8    -0.14  -0.03   0.11     0.04  -0.06   0.00    -0.02   0.11   0.03
    13   6    -0.02  -0.01   0.10     0.00  -0.00  -0.01    -0.01   0.01   0.03
    14   6     0.03  -0.02   0.04    -0.01  -0.14  -0.02     0.00  -0.07  -0.00
    15   6     0.02   0.01  -0.02     0.00   0.19   0.03    -0.00   0.09   0.00
    16   6    -0.05  -0.01  -0.01     0.00  -0.13  -0.02    -0.01  -0.06  -0.02
    17   6    -0.08  -0.01   0.06     0.01  -0.01  -0.01    -0.02   0.00   0.01
    18   6    -0.05   0.01   0.07     0.02   0.31   0.04    -0.00   0.14   0.04
    19   6     0.08   0.01  -0.12    -0.01  -0.00   0.01     0.03  -0.04  -0.04
    20   8     0.15  -0.02  -0.01    -0.02  -0.11  -0.02     0.05   0.01   0.00
    21   6     0.04  -0.01   0.11    -0.00   0.07  -0.01     0.01   0.04   0.03
    22   7    -0.10  -0.01   0.04     0.02   0.04  -0.00    -0.00   0.13   0.03
    23   7    -0.05   0.01  -0.14     0.01  -0.10   0.00    -0.00  -0.11  -0.05
    24   1     0.01  -0.11  -0.10    -0.03  -0.06   0.00    -0.04   0.07   0.00
    25   1    -0.03  -0.11   0.06     0.01   0.01   0.04     0.14  -0.06   0.01
    26   1    -0.08   0.15   0.05    -0.05  -0.07   0.01    -0.09   0.01  -0.13
    27   1     0.02   0.18  -0.11    -0.01   0.03  -0.01     0.02  -0.14  -0.00
    28   1     0.17  -0.15  -0.14    -0.01   0.15   0.03     0.05  -0.13  -0.09
    29   1    -0.44  -0.09  -0.35    -0.23   0.11  -0.05     0.57  -0.10   0.42
    30   1     0.01  -0.04   0.15    -0.01  -0.24  -0.05    -0.01  -0.11   0.02
    31   1     0.10  -0.04   0.04    -0.02  -0.43  -0.06     0.02  -0.23  -0.02
    32   1     0.05   0.03  -0.06     0.01   0.33   0.05     0.01   0.14   0.00
    33   1    -0.08  -0.01  -0.08    -0.01  -0.42  -0.05    -0.02  -0.20  -0.04
    34   1    -0.14  -0.02   0.06     0.01  -0.27  -0.04    -0.04  -0.12  -0.01
                     25                     26                     27
                      A                      A                      A
 Frequencies --    539.6266               551.8510               604.7031
 Red. masses --      4.3898                11.2468                 2.5379
 Frc consts  --      0.7531                 2.0180                 0.5468
 IR Inten    --     21.2827                80.1318               116.6429
  Atom  AN      X      Y      Z        X      Y      Z        X      Y      Z
     1   6    -0.14  -0.03  -0.03    -0.04   0.09  -0.04     0.00   0.03   0.10
     2   6     0.14  -0.07   0.15     0.05   0.13   0.08    -0.10   0.00  -0.01
     3   6    -0.15  -0.11  -0.07    -0.08   0.07  -0.01     0.05  -0.10   0.08
     4   6     0.08  -0.06  -0.01    -0.01   0.01   0.07    -0.02  -0.04  -0.08
     5   6     0.25  -0.02   0.14     0.09  -0.04   0.06     0.01  -0.01  -0.03
     6   6    -0.04   0.05  -0.06    -0.02   0.04  -0.02     0.06   0.08   0.02
     7   6    -0.01   0.13  -0.02     0.05  -0.07  -0.12     0.01   0.09  -0.10
     8   8     0.04   0.01   0.03    -0.33  -0.02  -0.20    -0.04   0.00  -0.02
     9   8    -0.01  -0.06  -0.01    -0.04   0.15   0.30     0.03   0.04   0.01
    10  16    -0.01   0.05  -0.02     0.27  -0.11   0.02     0.04   0.00  -0.00
    11   7    -0.01   0.13   0.02     0.19  -0.03  -0.18    -0.12  -0.02  -0.10
    12   8    -0.09  -0.03  -0.06    -0.22  -0.14  -0.08     0.03  -0.04   0.03
    13   6    -0.01  -0.01   0.01     0.01   0.01   0.01    -0.00  -0.01   0.01
    14   6     0.00   0.03   0.01     0.02  -0.03   0.00     0.00   0.01   0.00
    15   6    -0.00  -0.04  -0.01     0.02   0.03   0.01     0.00  -0.01  -0.00
    16   6    -0.01   0.03  -0.00    -0.01  -0.03   0.01    -0.00   0.01   0.00
    17   6    -0.01  -0.00   0.01    -0.02   0.00   0.02    -0.01  -0.00   0.01
    18   6    -0.01  -0.06   0.00    -0.02   0.06   0.01    -0.01  -0.01   0.00
    19   6     0.02   0.03  -0.02    -0.01  -0.03  -0.04     0.01   0.02  -0.02
    20   8     0.03  -0.02   0.00     0.02   0.04   0.04     0.02  -0.04   0.01
    21   6     0.01  -0.02   0.02     0.01  -0.00   0.06     0.01   0.02   0.03
    22   7    -0.01  -0.09   0.00    -0.08   0.12   0.05    -0.03  -0.06   0.01
    23   7     0.00   0.07  -0.01    -0.08  -0.08  -0.05    -0.02   0.04  -0.01
    24   1    -0.31  -0.08  -0.16    -0.13   0.08  -0.11    -0.01  -0.02   0.09
    25   1     0.28  -0.04   0.18     0.08   0.13   0.11    -0.14   0.06  -0.16
    26   1    -0.46  -0.09  -0.26    -0.17   0.03  -0.18     0.12  -0.10   0.14
    27   1    -0.13  -0.00  -0.17    -0.13   0.07  -0.02    -0.06   0.01  -0.11
    28   1     0.05   0.21  -0.03     0.13  -0.09  -0.16     0.09   0.03  -0.15
    29   1     0.08   0.17   0.17    -0.03  -0.04  -0.35     0.48   0.14   0.69
    30   1    -0.00   0.04   0.03     0.02  -0.04   0.03     0.00   0.00   0.02
    31   1     0.02   0.10   0.02     0.01  -0.10  -0.01     0.01   0.02   0.01
    32   1     0.00  -0.06  -0.02     0.03   0.05   0.01     0.01  -0.01  -0.01
    33   1    -0.01   0.09   0.00    -0.03  -0.08  -0.02    -0.01   0.02  -0.00
    34   1    -0.02   0.05   0.01    -0.01  -0.05   0.01    -0.01   0.00   0.01
                     28                     29                     30
                      A                      A                      A
 Frequencies --    629.6423               634.7551               706.6556
 Red. masses --      6.2991                 6.4400                 5.9729
 Frc consts  --      1.4714                 1.5288                 1.7573
 IR Inten    --     23.4162                 0.9156                 0.9488
  Atom  AN      X      Y      Z        X      Y      Z        X      Y      Z
     1   6     0.10   0.08  -0.19    -0.01  -0.01   0.03     0.05  -0.01   0.05
     2   6     0.03   0.23   0.06    -0.01  -0.04  -0.01    -0.04  -0.02  -0.04
     3   6    -0.07   0.09   0.02     0.01  -0.01  -0.00     0.06   0.00   0.04
     4   6    -0.14  -0.08   0.25     0.02   0.02  -0.05    -0.03   0.01  -0.04
     5   6     0.02  -0.21   0.00    -0.00   0.04   0.00     0.07   0.01   0.05
     6   6     0.03  -0.10   0.01    -0.00   0.02   0.00    -0.05   0.00  -0.03
     7   6    -0.09  -0.05   0.03     0.00   0.01  -0.01    -0.12   0.02  -0.04
     8   8    -0.00   0.11   0.03     0.00  -0.02  -0.01     0.00  -0.01  -0.01
     9   8     0.09  -0.04  -0.01    -0.02   0.01   0.00    -0.01   0.00   0.01
    10  16    -0.01   0.05   0.05     0.00  -0.01  -0.01     0.01  -0.01  -0.01
    11   7    -0.18  -0.05  -0.04     0.03   0.01   0.01     0.03   0.01   0.03
    12   8     0.09  -0.10  -0.21    -0.02   0.02   0.03    -0.00   0.01  -0.01
    13   6    -0.06  -0.00   0.03    -0.31   0.00   0.04    -0.05  -0.03   0.23
    14   6    -0.02   0.01  -0.04    -0.08   0.05  -0.34    -0.07  -0.04   0.24
    15   6    -0.01   0.01  -0.04     0.08   0.01  -0.12    -0.23   0.03  -0.15
    16   6     0.07   0.00  -0.03     0.34  -0.00  -0.06     0.17   0.01  -0.16
    17   6     0.02  -0.01   0.04     0.08  -0.04   0.30     0.18   0.01  -0.14
    18   6     0.01  -0.01   0.04    -0.08  -0.01   0.11     0.21  -0.03   0.14
    19   6     0.04  -0.00  -0.00    -0.00  -0.00   0.01     0.10   0.01   0.01
    20   8     0.02  -0.01  -0.02    -0.02   0.00   0.01     0.01   0.01  -0.05
    21   6    -0.02   0.01  -0.01    -0.01  -0.00   0.01    -0.08  -0.03  -0.03
    22   7     0.03  -0.02   0.00    -0.01   0.00   0.01    -0.09   0.03  -0.02
    23   7     0.05   0.01  -0.00    -0.01  -0.00   0.02    -0.06  -0.02  -0.01
    24   1     0.01   0.05  -0.25    -0.00  -0.01   0.04     0.04  -0.00   0.04
    25   1    -0.05   0.16   0.15    -0.00  -0.03  -0.03    -0.14  -0.01  -0.11
    26   1     0.00  -0.05  -0.26     0.00   0.01   0.05     0.00   0.02   0.02
    27   1    -0.19  -0.04   0.22     0.02   0.01  -0.04    -0.18   0.01  -0.16
    28   1    -0.11  -0.14   0.02    -0.00   0.03  -0.00    -0.19   0.08  -0.00
    29   1     0.30  -0.00   0.40    -0.06  -0.00  -0.08    -0.09  -0.02  -0.11
    30   1    -0.06  -0.00   0.03    -0.24  -0.02   0.18    -0.16   0.04   0.03
    31   1     0.03   0.00  -0.04     0.09   0.04  -0.33     0.26  -0.02   0.26
    32   1    -0.05  -0.00   0.02    -0.15  -0.02   0.22    -0.22   0.07  -0.16
    33   1     0.06   0.00  -0.03     0.27   0.02  -0.21     0.32  -0.01   0.14
    34   1    -0.03  -0.01   0.03    -0.08  -0.04   0.29    -0.06   0.06  -0.15
                     31                     32                     33
                      A                      A                      A
 Frequencies --    710.9487               712.9294               723.7430
 Red. masses --      2.1009                 4.6336                 4.8120
 Frc consts  --      0.6257                 1.3876                 1.4851
 IR Inten    --     53.5742                56.8718                 8.5163
  Atom  AN      X      Y      Z        X      Y      Z        X      Y      Z
     1   6     0.00   0.03   0.03    -0.01  -0.10  -0.11     0.21  -0.10  -0.07
     2   6    -0.03   0.04   0.01     0.08  -0.11  -0.02    -0.08  -0.04  -0.12
     3   6     0.01  -0.04   0.02    -0.03   0.12  -0.08     0.13   0.09   0.08
     4   6     0.00  -0.02  -0.02     0.00   0.05   0.07    -0.19  -0.01   0.06
     5   6     0.04  -0.01   0.00    -0.13   0.03  -0.01     0.13  -0.05   0.20
     6   6    -0.01   0.03  -0.02     0.03  -0.09   0.05    -0.16  -0.09  -0.15
     7   6    -0.00  -0.02  -0.03     0.01   0.05   0.10    -0.05   0.08  -0.06
     8   8     0.00   0.02   0.02    -0.01  -0.06  -0.06     0.01  -0.03  -0.00
     9   8    -0.00  -0.01  -0.01     0.01   0.04   0.04    -0.03   0.01  -0.00
    10  16    -0.02   0.01   0.01     0.07  -0.04  -0.03     0.02   0.01  -0.04
    11   7     0.03  -0.03   0.01    -0.12   0.10  -0.03     0.04   0.09   0.02
    12   8     0.01  -0.01  -0.03    -0.04   0.02   0.08    -0.07  -0.00   0.11
    13   6     0.01   0.08  -0.00    -0.00   0.07   0.03     0.01   0.00  -0.05
    14   6    -0.00  -0.14  -0.03    -0.01  -0.11   0.01     0.02   0.01  -0.05
    15   6     0.02   0.07   0.02    -0.02   0.08  -0.01     0.05  -0.01   0.03
    16   6    -0.02  -0.14  -0.01     0.02  -0.10  -0.03    -0.05  -0.00   0.03
    17   6    -0.01   0.08   0.02     0.03   0.08  -0.01    -0.04  -0.00   0.03
    18   6    -0.02  -0.12  -0.02     0.02  -0.09   0.00    -0.04   0.00  -0.03
    19   6    -0.00   0.04  -0.00    -0.00  -0.08   0.00     0.00   0.01  -0.02
    20   8     0.01   0.01   0.01    -0.02  -0.04  -0.03     0.03  -0.01   0.01
    21   6     0.00  -0.06  -0.00    -0.01   0.18   0.00     0.00   0.01   0.02
    22   7     0.00   0.04   0.01    -0.01  -0.14  -0.04     0.03  -0.02   0.03
    23   7    -0.00  -0.03  -0.01     0.00   0.11   0.03     0.03   0.01  -0.01
    24   1    -0.01   0.01   0.03     0.02  -0.03  -0.09     0.35  -0.10   0.03
    25   1    -0.04   0.07  -0.06     0.13  -0.21   0.19    -0.31  -0.15  -0.06
    26   1    -0.01  -0.05  -0.01     0.02   0.14   0.03     0.11   0.05  -0.02
    27   1    -0.06   0.02  -0.07     0.20  -0.07   0.22    -0.50  -0.11  -0.18
    28   1     0.01   0.00  -0.04    -0.03  -0.01   0.11     0.02   0.25  -0.06
    29   1    -0.03  -0.05  -0.09     0.12   0.18   0.33    -0.01   0.11   0.03
    30   1     0.03   0.50   0.07    -0.01   0.31   0.04     0.03   0.01  -0.00
    31   1    -0.01   0.15   0.01     0.03   0.00   0.03    -0.05   0.02  -0.05
    32   1     0.03   0.55   0.08    -0.02   0.35   0.03     0.05   0.00   0.03
    33   1    -0.02   0.15   0.01     0.04  -0.01   0.02    -0.08   0.02  -0.03
    34   1     0.02   0.50   0.08     0.01   0.30   0.02     0.00   0.00   0.03
                     34                     35                     36
                      A                      A                      A
 Frequencies --    732.2962               767.3876               771.7441
 Red. masses --      4.1066                 5.1812                 3.9799
 Frc consts  --      1.2975                 1.7977                 1.3966
 IR Inten    --     44.5740                48.8376                12.6556
  Atom  AN      X      Y      Z        X      Y      Z        X      Y      Z
     1   6     0.00  -0.04  -0.04     0.05   0.02  -0.13    -0.04   0.03   0.11
     2   6     0.03  -0.05  -0.01    -0.03   0.11   0.05     0.01  -0.02  -0.02
     3   6    -0.01   0.05  -0.03    -0.08  -0.08   0.02     0.06  -0.01   0.00
     4   6     0.00   0.03   0.02    -0.05  -0.08   0.06     0.02   0.01  -0.02
     5   6    -0.05   0.01  -0.01    -0.03  -0.06  -0.03     0.02   0.03   0.04
     6   6     0.02  -0.03   0.03     0.13   0.01  -0.05    -0.09   0.01   0.01
     7   6     0.01   0.04   0.06     0.13  -0.01  -0.12    -0.11  -0.04  -0.01
     8   8     0.00  -0.02  -0.03    -0.01   0.02   0.07    -0.01  -0.01  -0.02
     9   8     0.01   0.02   0.01    -0.05  -0.03  -0.05     0.03  -0.01   0.04
    10  16     0.02  -0.02  -0.01    -0.04   0.08  -0.04     0.03  -0.02   0.02
    11   7    -0.07   0.08  -0.02     0.18  -0.08  -0.03    -0.03  -0.11   0.05
    12   8    -0.01  -0.00   0.03    -0.05  -0.05   0.19     0.04   0.08  -0.15
    13   6    -0.00  -0.10  -0.01    -0.01  -0.05   0.02     0.00  -0.06  -0.03
    14   6    -0.00   0.03   0.00    -0.01  -0.00   0.03     0.00   0.01  -0.02
    15   6    -0.01  -0.10  -0.01    -0.03  -0.05  -0.02     0.02  -0.07   0.00
    16   6     0.00   0.03   0.00     0.03   0.01  -0.02    -0.03   0.00   0.01
    17   6     0.00  -0.10  -0.02     0.03  -0.04  -0.02    -0.02  -0.06   0.00
    18   6     0.00   0.05   0.01     0.02   0.06   0.02    -0.01   0.09   0.00
    19   6     0.01   0.33   0.05    -0.02   0.06   0.01     0.02   0.06  -0.01
    20   8    -0.01  -0.09  -0.02    -0.03  -0.10   0.01     0.03  -0.11  -0.02
    21   6    -0.01  -0.09  -0.02     0.05   0.23   0.03    -0.02   0.30   0.05
    22   7     0.01   0.13   0.01    -0.06  -0.09  -0.04     0.03  -0.12   0.02
    23   7    -0.00  -0.21  -0.02    -0.08   0.01   0.00     0.05   0.02  -0.01
    24   1    -0.00  -0.03  -0.04     0.15  -0.12  -0.07    -0.10   0.12   0.07
    25   1     0.04  -0.09   0.07     0.16   0.09   0.22    -0.12   0.03  -0.20
    26   1     0.01   0.07   0.03     0.23  -0.17   0.06    -0.16   0.02  -0.11
    27   1     0.09  -0.01   0.08     0.18  -0.02   0.24    -0.19  -0.03  -0.18
    28   1    -0.00   0.01   0.06     0.19  -0.00  -0.15    -0.15  -0.00   0.01
    29   1     0.12   0.14   0.26    -0.01  -0.12  -0.29    -0.29  -0.18  -0.29
    30   1     0.00   0.18   0.02    -0.01   0.09   0.03     0.02   0.11   0.01
    31   1     0.02   0.47   0.06     0.05   0.27   0.08    -0.01   0.36   0.02
    32   1     0.01   0.25   0.04    -0.02   0.21   0.01     0.03   0.26   0.04
    33   1     0.02   0.48   0.07     0.06   0.25   0.06    -0.03   0.33   0.03
    34   1     0.01   0.18   0.02     0.00   0.08  -0.01    -0.00   0.09   0.03
                     37                     38                     39
                      A                      A                      A
 Frequencies --    786.7534               809.4988               835.7817
 Red. masses --      1.4757                 2.6735                 3.8207
 Frc consts  --      0.5382                 1.0322                 1.5725
 IR Inten    --    106.2682                15.1075                35.6081
  Atom  AN      X      Y      Z        X      Y      Z        X      Y      Z
     1   6    -0.05   0.01   0.00    -0.00   0.00  -0.00    -0.01   0.03   0.02
     2   6    -0.07   0.01  -0.05    -0.00   0.00  -0.00    -0.02   0.05   0.02
     3   6    -0.03  -0.00  -0.03    -0.00  -0.01  -0.00     0.06  -0.01   0.05
     4   6    -0.04   0.01  -0.06    -0.01  -0.01   0.01     0.07   0.01  -0.01
     5   6     0.11   0.00   0.06    -0.00   0.00   0.01     0.04   0.00  -0.00
     6   6    -0.03   0.00  -0.01     0.01   0.00   0.00    -0.15   0.00  -0.11
     7   6     0.00  -0.03   0.05    -0.01   0.00  -0.02     0.26  -0.10   0.22
     8   8    -0.00   0.00  -0.00    -0.00  -0.00   0.00    -0.01   0.01   0.01
     9   8     0.01  -0.00   0.01     0.00  -0.00   0.01     0.02  -0.00   0.00
    10  16     0.01   0.00   0.00     0.01   0.00  -0.00     0.01   0.02  -0.01
    11   7    -0.04  -0.01  -0.00     0.01  -0.03   0.01    -0.10  -0.01  -0.04
    12   8    -0.01  -0.01  -0.05     0.00   0.02  -0.01     0.00  -0.05   0.01
    13   6     0.00  -0.00  -0.00     0.00   0.06   0.01     0.00   0.00   0.01
    14   6    -0.00   0.00  -0.00     0.00   0.02   0.00    -0.00  -0.00   0.02
    15   6     0.00  -0.00   0.00     0.00   0.10   0.01    -0.01   0.01  -0.00
    16   6     0.00   0.00   0.00    -0.00   0.02   0.00     0.03   0.00  -0.01
    17   6     0.00  -0.00  -0.00    -0.00   0.06   0.01     0.02   0.00  -0.02
    18   6    -0.00   0.00   0.00    -0.01  -0.20  -0.03    -0.00  -0.01   0.00
    19   6    -0.00  -0.00   0.00     0.01   0.23   0.03    -0.06   0.02   0.05
    20   8    -0.01  -0.00  -0.01     0.00  -0.10  -0.01    -0.08  -0.01  -0.04
    21   6    -0.00   0.01  -0.01    -0.00   0.10   0.02     0.08   0.05  -0.03
    22   7     0.01  -0.00  -0.01     0.00  -0.02   0.01    -0.02   0.00  -0.12
    23   7     0.01  -0.00   0.00    -0.00  -0.08  -0.01    -0.07  -0.01   0.05
    24   1     0.35   0.01   0.30     0.00   0.01   0.01     0.19   0.01   0.18
    25   1     0.50   0.01   0.35     0.02   0.01   0.01    -0.14   0.08  -0.13
    26   1     0.43  -0.01   0.34     0.02  -0.02   0.00    -0.34   0.00  -0.24
    27   1     0.23   0.02   0.14     0.00  -0.02   0.01    -0.36   0.08  -0.34
    28   1    -0.01  -0.05   0.05    -0.02   0.01  -0.02     0.42  -0.12   0.14
    29   1    -0.02  -0.02  -0.01    -0.08  -0.05  -0.09     0.04  -0.03   0.02
    30   1     0.00   0.00  -0.00    -0.00  -0.07  -0.01    -0.00   0.00   0.00
    31   1    -0.00   0.01  -0.00    -0.02  -0.53  -0.07     0.01  -0.02   0.02
    32   1    -0.00   0.01   0.00    -0.02  -0.52  -0.07    -0.02  -0.03   0.01
    33   1     0.00   0.01   0.00    -0.02  -0.51  -0.07     0.05  -0.03   0.02
    34   1     0.00   0.00  -0.00    -0.00  -0.04  -0.00     0.02   0.00  -0.02
                     40                     41                     42
                      A                      A                      A
 Frequencies --    847.5646               878.6664               888.5943
 Red. masses --      6.7244                 1.2517                 6.9342
 Frc consts  --      2.8461                 0.5694                 3.2259
 IR Inten    --    171.4623                 0.0002               142.9077
  Atom  AN      X      Y      Z        X      Y      Z        X      Y      Z
[...]
    22   7     0.00  -0.00   0.00     0.00   0.00   0.00     0.00   0.00   0.00
    23   7     0.00  -0.00   0.00     0.00  -0.00   0.00    -0.00  -0.00  -0.00
    24   1    -0.00  -0.00   0.00     0.06   0.01  -0.08    -0.00  -0.00   0.00
    25   1    -0.00   0.00   0.00     0.13  -0.35  -0.19    -0.00   0.00   0.00
    26   1    -0.00  -0.00   0.00    -0.17  -0.50   0.20     0.00   0.00  -0.00
    27   1    -0.00  -0.00   0.00    -0.42  -0.02   0.55    -0.00  -0.00   0.00
    28   1     0.00   0.00  -0.00    -0.00   0.00  -0.00    -0.00   0.00  -0.00
    29   1    -0.00  -0.00   0.00    -0.00   0.00   0.00     0.23   0.90  -0.36
    30   1     0.40   0.01  -0.19    -0.00  -0.00   0.00     0.00  -0.00   0.00
    31   1     0.03   0.06  -0.44    -0.00  -0.00   0.00     0.00   0.00  -0.00
    32   1    -0.32   0.04  -0.21     0.00  -0.00   0.00    -0.00   0.00  -0.00
    33   1    -0.40  -0.01   0.20     0.00   0.00  -0.00    -0.00   0.00   0.00
    34   1    -0.03  -0.06   0.49     0.00   0.00  -0.00     0.00   0.00   0.00

 -------------------
 - Thermochemistry -
 -------------------
 Temperature   263.150 Kelvin.  Pressure   1.00000 Atm.
 Atom     1 has atomic number  6 and mass  12.00000
 Atom     2 has atomic number  6 and mass  12.00000
 Atom     3 has atomic number  6 and mass  12.00000
 Atom     4 has atomic number  6 and mass  12.00000
 Atom     5 has atomic number  6 and mass  12.00000
 Atom     6 has atomic number  6 and mass  12.00000
 Atom     7 has atomic number  6 and mass  12.00000
 Atom     8 has atomic number  8 and mass  15.99491
 Atom     9 has atomic number  8 and mass  15.99491
 Atom    10 has atomic number 16 and mass  31.97207
 Atom    11 has atomic number  7 and mass  14.00307
 Atom    12 has atomic number  8 and mass  15.99491
 Atom    13 has atomic number  6 and mass  12.00000
 Atom    14 has atomic number  6 and mass  12.00000
 Atom    15 has atomic number  6 and mass  12.00000
 Atom    16 has atomic number  6 and mass  12.00000
 Atom    17 has atomic number  6 and mass  12.00000
 Atom    18 has atomic number  6 and mass  12.00000
 Atom    19 has atomic number  6 and mass  12.00000
 Atom    20 has atomic number  8 and mass  15.99491
 Atom    21 has atomic number  6 and mass  12.00000
 Atom    22 has atomic number  7 and mass  14.00307
 Atom    23 has atomic number  7 and mass  14.00307
 Atom    24 has atomic number  1 and mass   1.00783
 Atom    25 has atomic number  1 and mass   1.00783
 Atom    26 has atomic number  1 and mass   1.00783
 Atom    27 has atomic number  1 and mass   1.00783
 Atom    28 has atomic number  1 and mass   1.00783
 Atom    29 has atomic number  1 and mass   1.00783
 Atom    30 has atomic number  1 and mass   1.00783
 Atom    31 has atomic number  1 and mass   1.00783
 Atom    32 has atomic number  1 and mass   1.00783
 Atom    33 has atomic number  1 and mass   1.00783
 Atom    34 has atomic number  1 and mass   1.00783
 Molecular mass:   329.04703 amu.
 Principal axes and moments of inertia in atomic units:
                           1         2         3
     Eigenvalues --  4135.59252********************
           X            0.99994   0.00871   0.00675
           Y           -0.00861   0.99984  -0.01550
           Z           -0.00688   0.01544   0.99986
 This molecule is an asymmetric top.
 Rotational symmetry number  1.
 Warning -- assumption of classical behavior for rotation
           may cause significant error
 Rotational temperatures (Kelvin)      0.02094     0.00657     0.00613
 Rotational constants (GHZ):           0.43639     0.13680     0.12773
 Zero-point vibrational energy     660842.2 (Joules/Mol)
                                  157.94508 (Kcal/Mol)
 Warning -- explicit consideration of  25 degrees of freedom as
           vibrations may cause significant error
 Vibrational temperatures:     24.32    41.11    45.58    88.73   101.01
          (Kelvin)            147.40   163.54   192.63   252.24   340.82
                              364.87   382.95   424.02   492.30   512.34
                              525.18   566.58   595.86   647.49   657.94
                              702.87   719.08   724.86   757.27   776.40
                              793.99   870.03   905.91   913.27  1016.72
                             1022.90  1025.75  1041.30  1053.61  1104.10
                             1110.37  1131.96  1164.69  1202.50  1219.46
                             1264.20  1278.49  1299.66  1385.76  1392.20
                             1425.03  1437.61  1452.68  1473.06  1478.05
                             1489.66  1490.40  1532.75  1547.82  1567.52
                             1595.43  1619.07  1647.03  1675.56  1719.03
                             1727.04  1729.33  1759.03  1763.36  1811.30
                             1885.69  1896.44  1921.20  1942.62  1946.08
                             1980.95  1984.59  2027.42  2069.76  2098.58
                             2174.05  2180.80  2236.64  2239.29  2351.27
                             2389.75  2411.95  2416.11  2446.85  2455.23
                             4434.40  4634.26  4637.29  4650.66  4657.24
                             4660.71  4671.76  4674.80  4677.65  4686.49
                             5136.56
 
 Zero-point correction=                           0.251701 (Hartree/Particle)
 Thermal correction to Energy=                    0.265569
 Thermal correction to Enthalpy=                  0.266402
 Thermal correction to Gibbs Free Energy=         0.210915
 Sum of electronic and zero-point Energies=          -1440.870073
 Sum of electronic and thermal Energies=             -1440.856205
 Sum of electronic and thermal Enthalpies=           -1440.855372
 Sum of electronic and thermal Free Energies=        -1440.910859
 
                     E (Thermal)             CV                S
                      KCal/Mol        Cal/Mol-Kelvin    Cal/Mol-Kelvin
 Total                  166.647             60.654            132.315
 Electronic               0.000              0.000              0.000
 Translational            0.784              2.981             42.648
 Rotational               0.784              2.981             34.626
 Vibrational            165.078             54.692             55.040
 Vibration     1          0.523              1.986              6.720
 Vibration     2          0.524              1.983              5.678
 Vibration     3          0.524              1.982              5.474
 Vibration     4          0.528              1.968              4.157
 Vibration     5          0.529              1.963              3.902
 Vibration     6          0.537              1.936              3.165
 Vibration     7          0.540              1.924              2.964
 Vibration     8          0.546              1.901              2.651
 Vibration     9          0.562              1.842              2.146
 Vibration    10          0.594              1.731              1.607
 Vibration    11          0.604              1.697              1.490
 Vibration    12          0.612              1.671              1.408
 Vibration    13          0.631              1.608              1.241
 Vibration    14          0.667              1.497              1.009
 Vibration    15          0.679              1.463              0.950
 Vibration    16          0.686              1.441              0.914
 Vibration    17          0.711              1.369              0.807
 Vibration    18          0.729              1.318              0.740
 Vibration    19          0.763              1.228              0.634
 Vibration    20          0.771              1.210              0.614
 Vibration    21          0.802              1.132              0.537
 Vibration    22          0.814              1.104              0.511
 Vibration    23          0.818              1.094              0.503
 Vibration    24          0.842              1.040              0.456
 Vibration    25          0.857              1.008              0.430
                       Q            Log10(Q)             Ln(Q)
 Total Bot       0.120962-109       -109.917351       -253.094055
 Total V=0       0.180167D+22         21.255676         48.943004
 Vib (Bot)       0.854867-125       -125.068102       -287.979946
 Vib (Bot)    1  0.108162D+02          1.034075          2.381045
 Vib (Bot)    2  0.639402D+01          0.805774          1.855363
 Vib (Bot)    3  0.576636D+01          0.760901          1.752040
 Vib (Bot)    4  0.295165D+01          0.470064          1.082363
 Vib (Bot)    5  0.258917D+01          0.413161          0.951338
 Vib (Bot)    6  0.176216D+01          0.246045          0.566539
 Vib (Bot)    7  0.158347D+01          0.199611          0.459622
 Vib (Bot)    8  0.133607D+01          0.125829          0.289733
 Vib (Bot)    9  0.100434D+01          0.001883          0.004335
 Vib (Bot)   10  0.720683D+00         -0.142256         -0.327556
 Vib (Bot)   11  0.666531D+00         -0.176180         -0.405669
 Vib (Bot)   12  0.630077D+00         -0.200607         -0.461914
 Vib (Bot)   13  0.558225D+00         -0.253191         -0.582993
 Vib (Bot)   14  0.463861D+00         -0.333612         -0.768170
 Vib (Bot)   15  0.440655D+00         -0.355902         -0.819494
 Vib (Bot)   16  0.426653D+00         -0.369925         -0.851785
 Vib (Bot)   17  0.385548D+00         -0.413922         -0.953090
 Vib (Bot)   18  0.359705D+00         -0.444054         -1.022472
 Vib (Bot)   19  0.319498D+00         -0.495532         -1.141005
 Vib (Bot)   20  0.312079D+00         -0.505735         -1.164498
 Vib (Bot)   21  0.282580D+00         -0.548858         -1.263793
 Vib (Bot)   22  0.272793D+00         -0.564166         -1.299041
 Vib (Bot)   23  0.269407D+00         -0.569591         -1.311532
 Vib (Bot)   24  0.251342D+00         -0.599736         -1.380943
 Vib (Bot)   25  0.241358D+00         -0.617338         -1.421473
 Vib (V=0)       0.127329D+07          6.104926         14.057112
 Vib (V=0)    1  0.113277D+02          1.054144          2.427255
 Vib (V=0)    2  0.691354D+01          0.839701          1.933482
 Vib (V=0)    3  0.628799D+01          0.798512          1.838642
 Vib (V=0)    4  0.349370D+01          0.543285          1.250960
 Vib (V=0)    5  0.313701D+01          0.496515          1.143269
 Vib (V=0)    6  0.233172D+01          0.367676          0.846606
 Vib (V=0)    7  0.216054D+01          0.334562          0.770358
 Vib (V=0)    8  0.192656D+01          0.284783          0.655738
 Vib (V=0)    9  0.162192D+01          0.210030          0.483612
 Vib (V=0)   10  0.137715D+01          0.138980          0.320013
 Vib (V=0)   11  0.133322D+01          0.124903          0.287600
 Vib (V=0)   12  0.130436D+01          0.115398          0.265713
 Vib (V=0)   13  0.124941D+01          0.096705          0.222671
 Vib (V=0)   14  0.118203D+01          0.072629          0.167235
 Vib (V=0)   15  0.116647D+01          0.066872          0.153978
 Vib (V=0)   16  0.115729D+01          0.063443          0.146083
 Vib (V=0)   17  0.113139D+01          0.053610          0.123443
 Vib (V=0)   18  0.111594D+01          0.047643          0.109701
 Vib (V=0)   19  0.109336D+01          0.038764          0.089258
 Vib (V=0)   20  0.108940D+01          0.037188          0.085628
 Vib (V=0)   21  0.107433D+01          0.031137          0.071694
 Vib (V=0)   22  0.106958D+01          0.029211          0.067262
 Vib (V=0)   23  0.106796D+01          0.028556          0.065752
 Vib (V=0)   24  0.105962D+01          0.025149          0.057909
 Vib (V=0)   25  0.105521D+01          0.023337          0.053736
 Electronic      0.100000D+01          0.000000          0.000000
 Translational   0.171697D+09          8.234762         18.961241
 Rotational      0.824115D+07          6.915988         15.924651
 ***** Axes restored to original set *****
 -------------------------------------------------------------------
 Center     Atomic                   Forces (Hartrees/Bohr)
 Number     Number              X              Y              Z
 -------------------------------------------------------------------
      1        6           0.000000034   -0.000000907    0.000001023
      2        6           0.000001095   -0.000003049    0.000001776
      3        6          -0.000000848   -0.000003114    0.000006517
      4        6           0.000001750    0.000000125    0.000001445
      5        6          -0.000000361    0.000005916    0.000003270
      6        6          -0.000002103   -0.000005871    0.000002034
      7        6          -0.000003331    0.000006456   -0.000001498
      8        8           0.000005915    0.000006736    0.000002241
      9        8           0.000002895    0.000002726   -0.000006758
     10       16          -0.000002572    0.000017282   -0.000002493
     11        7           0.000000084    0.000000792    0.000003921
     12        8           0.000003831   -0.000016227    0.000000161
     13        6           0.000000240    0.000005877    0.000000176
     14        6           0.000002836    0.000000976    0.000000457
     15        6           0.000000151    0.000000214    0.000002634
     16        6          -0.000000335    0.000002838   -0.000003774
     17        6          -0.000003504   -0.000001810    0.000000945
     18        6           0.000000451   -0.000001642   -0.000000627
     19        6          -0.000010129   -0.000012201   -0.000005591
     20        8           0.000008723    0.000015514    0.000000409
     21        6          -0.000011878   -0.000018682   -0.000013370
     22        7           0.000004144    0.000007254    0.000005718
     23        7           0.000001325    0.000001316   -0.000003328
     24        1          -0.000003216   -0.000005239    0.000000071
     25        1          -0.000001271   -0.000005905    0.000004806
     26        1           0.000001334   -0.000002859    0.000006157
     27        1           0.000002287    0.000000366    0.000003967
     28        1          -0.000002885   -0.000003490   -0.000004424
     29        1           0.000000031    0.000004710   -0.000004839
     30        1           0.000002533    0.000001096    0.000001283
     31        1           0.000002987    0.000003166    0.000002258
     32        1           0.000001688    0.000001659    0.000000858
     33        1          -0.000000999   -0.000001338   -0.000001341
     34        1          -0.000000901   -0.000002689   -0.000004085
 -------------------------------------------------------------------
 Cartesian Forces:  Max     0.000018682 RMS     0.000005211
 FormGI is forming the generalized inverse of G from B-inverse, IUseBI=4.

 ----------------------------------------------------------------------

 Electric dipole moment (input orientation):
 (Debye = 10**-18 statcoulomb cm , SI units = C m)
                  (au)            (Debye)         (10**-30 SI)
   Tot        0.256111D+01      0.650969D+01      0.217140D+02
   x         -0.456116D+00     -0.115933D+01     -0.386711D+01
   y          0.225648D+01      0.573539D+01      0.191312D+02
   z          0.112229D+01      0.285258D+01      0.951519D+01

 Dipole polarizability, Alpha (input orientation).
 (esu units = cm**3 , SI units = C**2 m**2 J**-1)
 Alpha(0;0):
               (au)            (10**-24 esu)      (10**-40 SI)
   iso        0.235710D+03      0.349286D+02      0.388633D+02
   aniso      0.805920D+02      0.119425D+02      0.132878D+02
   xx         0.238731D+03      0.353763D+02      0.393614D+02
   yx        -0.207609D+02     -0.307645D+01     -0.342301D+01
   yy         0.228672D+03      0.338856D+02      0.377029D+02
   zx        -0.411087D+02     -0.609169D+01     -0.677792D+01
   zy        -0.258445D+01     -0.382976D+00     -0.426118D+00
   zz         0.239727D+03      0.355239D+02      0.395257D+02

 ----------------------------------------------------------------------

 Dipole orientation:
     6          9.26002355          0.47627901          2.05965705
     6         11.33757543          1.47895923          3.30885411
     6         12.10039927          3.95108726          2.81353892
     6         10.79887660          5.40067697          1.05637736
     6          8.72587817          4.36206750         -0.16927644
     6          7.89709236          1.91111089          0.31386745
     6          5.64088550          0.74036058         -1.03719454
     8          4.33405633          6.52707783         -5.21092722
     8          7.73171775          3.24704764         -5.69762078
    16          5.94669861          4.61677895         -4.13994098
     7          4.19001261          2.70049899         -2.38387082
     8          7.47830795          5.95955295         -1.86615774
     6         -0.12451849          2.42080590          6.84375216
     6         -1.57493693          3.12581699          8.91778136
     6         -2.96140771          1.31878843         10.23762692
     6         -2.90010491         -1.20525660          9.48337425
     6         -1.45723549         -1.92668825          7.41376372
     6         -0.06540882         -0.11026960          6.08979459
     6          1.44326118         -0.89477775          3.91894943
     8          2.78634576          0.85785096          2.62615797
     6          3.90289191         -0.51740759          0.79555607
     7          3.32972207         -2.88352464          0.91740789
     7          1.71716897         -3.13925346          2.96798251
     1          8.66605943         -1.45089487          2.44643762
     1         12.35942822          0.33302241          4.66632570
     1         13.71953060          4.75048968          3.78385227
     1         11.35863940          7.32106360          0.61286234
     1          6.30359988         -0.73892552         -2.33054440
     1          2.74161355          1.98659633         -3.43160752
     1          0.95602633          3.82656728          5.81440417
     1         -1.62151032          5.09072683          9.50258553
     1         -4.09184179          1.87659981         11.85593741
     1         -3.97992103         -2.61410406         10.51024078
     1         -1.39715327         -3.88532530          6.81081779

 Electric dipole moment (dipole orientation):
 (Debye = 10**-18 statcoulomb cm , SI units = C m)
                  (au)            (Debye)         (10**-30 SI)
   Tot        0.256111D+01      0.650969D+01      0.217140D+02
   x          0.000000D+00      0.000000D+00      0.000000D+00
   y          0.000000D+00      0.000000D+00      0.000000D+00
   z          0.256111D+01      0.650969D+01      0.217140D+02

 Dipole polarizability, Alpha (dipole orientation).
 (esu units = cm**3 , SI units = C**2 m**2 J**-1)
 Alpha(0;0):
               (au)            (10**-24 esu)      (10**-40 SI)
   iso        0.235710D+03      0.349286D+02      0.388633D+02
   aniso      0.805920D+02      0.119425D+02      0.132878D+02
   xx         0.219793D+03      0.325699D+02      0.362389D+02
   yx         0.244049D+02      0.361644D+01      0.402383D+01
   yy         0.245287D+03      0.363478D+02      0.404424D+02
   zx        -0.352160D+02     -0.521847D+01     -0.580633D+01
   zy        -0.116885D+02     -0.173205D+01     -0.192717D+01
   zz         0.242050D+03      0.358680D+02      0.399086D+02

 ----------------------------------------------------------------------

 This type of calculation cannot be archived.


 MAN IS A SINGULAR CREATURE.  HE HAS A SET OF GIFTS
 WHICH MAKE HIM UNIQUE AMONG THE ANIMALS: SO THAT, 
 UNLIKE THEM, HE IS NOT A FIGURE IN THE LANDSCAPE --
 HE IS A SHAPER OF THE LANDSCAPE.

                       -- JACOB BRONOWSKI
 Job cpu time:       0 days  0 hours  0 minutes  1.8 seconds.
 Elapsed time:       0 days  0 hours  0 minutes  0.5 seconds.
 File lengths (MBytes):  RWF=      6 Int=      0 D2E=      0 Chk=      4 Scr=      1
 Normal termination of Gaussian 16 at Sat Apr  4 18:13:15 2020.
