 Entering Gaussian System, Link 0=g16
 Initial command:
 /apps/cent7/gaussian/g16-A.03/g16-haswell/g16/l1.exe "/scratch/brown/finej/0051_imine_mechanism/ts_631gd/cyclic_complete_2/new_logs_2/Gau-213437.inp" -scrdir="/scratch/brown/finej/0051_imine_mechanism/ts_631gd/cyclic_complete_2/new_logs_2/"
 Entering Link 1 = /apps/cent7/gaussian/g16-A.03/g16-haswell/g16/l1.exe PID=    213438.
  
 Copyright (c) 1988,1990,1992,1993,1995,1998,2003,2009,2016,
            Gaussian, Inc.  All Rights Reserved.
  
 This is part of the Gaussian(R) 16 program.  It is based on
 the Gaussian(R) 09 system (copyright 2009, Gaussian, Inc.),
 the Gaussian(R) 03 system (copyright 2003, Gaussian, Inc.),
 the Gaussian(R) 98 system (copyright 1998, Gaussian, Inc.),
 the Gaussian(R) 94 system (copyright 1995, Gaussian, Inc.),
 the Gaussian 92(TM) system (copyright 1992, Gaussian, Inc.),
 the Gaussian 90(TM) system (copyright 1990, Gaussian, Inc.),
 the Gaussian 88(TM) system (copyright 1988, Gaussian, Inc.),
 the Gaussian 86(TM) system (copyright 1986, Carnegie Mellon
 University), and the Gaussian 82(TM) system (copyright 1983,
 Carnegie Mellon University). Gaussian is a federally registered
 trademark of Gaussian, Inc.
  
 This software contains proprietary and confidential information,
 including trade secrets, belonging to Gaussian, Inc.
  
 This software is provided under written license and may be
 used, copied, transmitted, or stored only in accord with that
 written license.
  
 The following legend is applicable only to US Government
 contracts under FAR:
  
                    RESTRICTED RIGHTS LEGEND
  
 Use, reproduction and disclosure by the US Government is
 subject to restrictions as set forth in subparagraphs (a)
 and (c) of the Commercial Computer Software - Restricted
 Rights clause in FAR 52.227-19.
  
 Gaussian, Inc.
 340 Quinnipiac St., Bldg. 40, Wallingford CT 06492
  
  
 ---------------------------------------------------------------
 Warning -- This program may not be used in any manner that
 competes with the business of Gaussian, Inc. or will provide
 assistance to any competitor of Gaussian, Inc.  The licensee
 of this program is prohibited from giving any competitor of
 Gaussian, Inc. access to this program.  By using this program,
 the user acknowledges that Gaussian, Inc. is engaged in the
 business of creating and licensing software in the field of
 computational chemistry and represents and warrants to the
 licensee that it is not a competitor of Gaussian, Inc. and that
 it will not use this program in any manner prohibited above.
 ---------------------------------------------------------------
  

 Cite this work as:
 Gaussian 16, Revision A.03,
 M. J. Frisch, G. W. Trucks, H. B. Schlegel, G. E. Scuseria, 
 M. A. Robb, J. R. Cheeseman, G. Scalmani, V. Barone, 
 G. A. Petersson, H. Nakatsuji, X. Li, M. Caricato, A. V. Marenich, 
 J. Bloino, B. G. Janesko, R. Gomperts, B. Mennucci, H. P. Hratchian, 
 J. V. Ortiz, A. F. Izmaylov, J. L. Sonnenberg, D. Williams-Young, 
 F. Ding, F. Lipparini, F. Egidi, J. Goings, B. Peng, A. Petrone, 
 T. Henderson, D. Ranasinghe, V. G. Zakrzewski, J. Gao, N. Rega, 
 G. Zheng, W. Liang, M. Hada, M. Ehara, K. Toyota, R. Fukuda, 
 J. Hasegawa, M. Ishida, T. Nakajima, Y. Honda, O. Kitao, H. Nakai, 
 T. Vreven, K. Throssell, J. A. Montgomery, Jr., J. E. Peralta, 
 F. Ogliaro, M. J. Bearpark, J. J. Heyd, E. N. Brothers, K. N. Kudin, 
 V. N. Staroverov, T. A. Keith, R. Kobayashi, J. Normand, 
 K. Raghavachari, A. P. Rendell, J. C. Burant, S. S. Iyengar, 
 J. Tomasi, M. Cossi, J. M. Millam, M. Klene, C. Adamo, R. Cammi, 
 J. W. Ochterski, R. L. Martin, K. Morokuma, O. Farkas, 
 J. B. Foresman, and D. J. Fox, Gaussian, Inc., Wallingford CT, 2016.
 
 ******************************************
 Gaussian 16:  ES64L-G16RevA.03 25-Dec-2016
                 4-Apr-2020 
 ******************************************
 %nprocshared=4
 Will use up to    4 processors via shared memory.
 %mem=1GB
 %oldchk=chk/cyclic_5_to_6.chk
 Copying data from "chk/cyclic_5_to_6.chk" to current chk file "/scratch/brown/finej/0051_imine_mechanism/ts_631gd/cyclic_complete_2/new_logs_2/Gau-213438.chk"
 IOpt=  2 FromEx=T IUOpen= 4 IOptOp= 5 NList=   0 IFRang= 0 IUIn= 4 IUOut= 2.
 ----------------------------------------------------------------------
 # freq=readfc wb97xd/6-31g(d) scrf=solvent=dichloromethane geom=check 
 temperature=263.15
 ----------------------------------------------------------------------
 1/29=2,38=1,112=263150,172=1/1;
 2/12=2,40=1/2;
 7/8=1,25=11/16;
 99/5=2/99;
 -------------------------------
 Attack of PINC on Sulfonylimine
 -------------------------------
 Structure from the checkpoint file:  "/scratch/brown/finej/0051_imine_mechanism/ts_631gd/cyclic_complete_2/new_logs_2/Gau-213438.chk"
 Charge =  0 Multiplicity = 1
 Redundant internal coordinates found in file.  (old form).
 C,0,3.499252162,1.7655058495,0.4017964172
 C,0,4.3047530757,2.8949676834,0.3503833812
 C,0,5.0775930708,3.145488432,-0.7823279278
 C,0,5.0473353327,2.2617014704,-1.8526444706
 C,0,4.2339851711,1.1388141127,-1.7794163812
 C,0,3.4392473369,0.8689625167,-0.6669376375
 C,0,2.5692800117,-0.3727199357,-0.5653725282
 O,0,3.4981845806,-1.7238421169,-4.0433579727
 O,0,4.8007032687,-1.8743105783,-1.9044739806
 S,0,3.8007721595,-1.2210736859,-2.7267127841
 N,0,2.3836216442,-0.9563370631,-1.9155512127
 O,0,4.2350685279,0.3244314625,-2.9190614175
 C,0,-1.1323072963,3.3217820783,-0.1013102222
 C,0,-1.6304999227,4.5447514508,0.3347343108
 C,0,-2.232314924,4.6480411435,1.5884375755
 C,0,-2.3272519488,3.5250199097,2.4059914012
 C,0,-1.8207165066,2.301127916,1.9752059638
 O,0,-1.7462055997,0.3833084219,-0.7594786966
 C,0,-1.2267570408,2.1969222253,0.719864538
 C,0,-0.7126826979,0.8609807408,0.2435424375
 O,0,0.5002238981,0.9753469288,-0.4419027335
 C,0,1.2262093526,-0.1016233255,0.0086707577
 N,0,0.6395086148,-0.7750606605,0.9248110859
 C,0,-1.383290718,-2.4615441623,-0.4703074268
 N,0,-0.5868031625,-0.1965538547,1.1725586436
 C,0,-3.6255015571,-1.1695284102,-1.5865566204
 C,0,-3.4257827491,-0.9896654964,1.2649404664
 P,0,-2.4038956831,-0.9925868514,-0.2387052466
 C,0,-1.3046831731,-3.5031469391,0.4527807484
 C,0,-0.5013731403,-4.6072201698,0.1810767001
 C,0,0.2224074303,-4.6746354866,-1.0060424134
 C,0,0.1354362984,-3.6386520528,-1.9347748718
 C,0,-0.6644239294,-2.5311982426,-1.6688546223
 C,0,-4.2004724362,-2.4239909068,-1.8210392879
 C,0,-5.1674706141,-2.5795652991,-2.8073571081
 C,0,-5.5679822159,-1.4837111777,-3.569444816
 C,0,-4.9998206003,-0.2336301491,-3.3418145381
 C,0,-4.0324515472,-0.0734846205,-2.3528170561
 C,0,-2.8995869102,-1.2804027378,2.5312675774
 C,0,-3.7313732286,-1.3025556561,3.6436869869
 C,0,-5.0864223418,-1.0042940183,3.5143939418
 C,0,-5.6116458715,-0.6933252757,2.2644369724
 C,0,-4.7908087589,-0.6974966156,1.1409513941
 H,0,2.890072072,1.5721187581,1.280240602
 H,0,4.3271929834,3.5800074277,1.1911337047
 H,0,5.7080929101,4.0269433963,-0.8331849874
 H,0,5.6417453752,2.4249628378,-2.7447650361
 H,0,3.0480662949,-1.1002960804,0.1026948478
 H,0,1.8319982388,-1.8137775885,-1.8801949879
 H,0,-0.6644239132,3.239272923,-1.0777116832
 H,0,-1.5500672116,5.4187713174,-0.3046465161
 H,0,-2.622309534,5.6032831397,1.9271770087
 H,0,-2.790594631,3.6012513273,3.3851784249
 H,0,-1.87446915,1.4210513829,2.6076677606
 H,0,-1.8654260842,-3.4623139282,1.3801419982
 H,0,-0.4428230949,-5.4165588847,0.9015268728
 H,0,0.846881767,-5.5375766644,-1.2136995927
 H,0,0.6796150534,-3.6988598429,-2.8734358092
 H,0,-0.7358442277,-1.7275890946,-2.3971589558
 H,0,-3.8914912815,-3.2864824852,-1.2367970383
 H,0,-5.6054029729,-3.5569211721,-2.9834639672
 H,0,-6.320980965,-1.605984661,-4.3419234547
 H,0,-5.3069422646,0.6215325364,-3.9356057993
 H,0,-3.5898493239,0.9004913486,-2.1780563476
 H,0,-1.8352895295,-1.4430988904,2.637471014
 H,0,-3.3147595117,-1.5379270887,4.6177760129
 H,0,-5.7301088516,-1.0090627069,4.3886174279
 H,0,-6.6641124162,-0.4521612428,2.1565819965
 H,0,-5.2221219904,-0.4678050946,0.1735480059
 Recover connectivity data from disk.
                           ----------------------------
                           !    Current Parameters    !
                           ! (Angstroms and Degrees)  !
 --------------------------                            --------------------------
 ! Name  Definition              Value          Derivative Info.                !
 --------------------------------------------------------------------------------
 ! R1    R(1,2)                  1.3882         estimate D2E/DX2                !
 ! R2    R(1,6)                  1.3963         estimate D2E/DX2                !
 ! R3    R(1,44)                 1.0864         estimate D2E/DX2                !
 ! R4    R(2,3)                  1.3939         estimate D2E/DX2                !
 ! R5    R(2,45)                 1.0847         estimate D2E/DX2                !
 ! R6    R(3,4)                  1.3884         estimate D2E/DX2                !
 ! R7    R(3,46)                 1.0849         estimate D2E/DX2                !
 ! R8    R(4,5)                  1.3884         estimate D2E/DX2                !
 ! R9    R(4,47)                 1.0844         estimate D2E/DX2                !
 ! R10   R(5,6)                  1.3936         estimate D2E/DX2                !
 ! R11   R(5,12)                 1.4007         estimate D2E/DX2                !
 ! R12   R(6,7)                  1.5195         estimate D2E/DX2                !
 ! R13   R(7,11)                 1.4826         estimate D2E/DX2                !
 ! R14   R(7,22)                 1.4855         estimate D2E/DX2                !
 ! R15   R(7,48)                 1.0977         estimate D2E/DX2                !
 ! R16   R(8,10)                 1.4415         estimate D2E/DX2                !
 ! R17   R(9,10)                 1.4501         estimate D2E/DX2                !
 ! R18   R(10,11)                1.6542         estimate D2E/DX2                !
 ! R19   R(10,12)                1.6168         estimate D2E/DX2                !
 ! R20   R(11,49)                1.0202         estimate D2E/DX2                !
 ! R21   R(13,14)                1.3907         estimate D2E/DX2                !
 ! R22   R(13,19)                1.3959         estimate D2E/DX2                !
 ! R23   R(13,50)                1.0859         estimate D2E/DX2                !
 ! R24   R(14,15)                1.3945         estimate D2E/DX2                !
 ! R25   R(14,51)                1.0859         estimate D2E/DX2                !
 ! R26   R(15,16)                1.3923         estimate D2E/DX2                !
 ! R27   R(15,52)                1.086          estimate D2E/DX2                !
 ! R28   R(16,17)                1.3929         estimate D2E/DX2                !
 ! R29   R(16,53)                1.086          estimate D2E/DX2                !
 ! R30   R(17,19)                1.3927         estimate D2E/DX2                !
 ! R31   R(17,54)                1.0851         estimate D2E/DX2                !
 ! R32   R(18,20)                1.5174         estimate D2E/DX2                !
 ! R33   R(18,28)                1.6115         estimate D2E/DX2                !
 ! R34   R(19,20)                1.5086         estimate D2E/DX2                !
 ! R35   R(20,21)                1.3979         estimate D2E/DX2                !
 ! R36   R(20,25)                1.4133         estimate D2E/DX2                !
 ! R37   R(21,22)                1.3747         estimate D2E/DX2                !
 ! R38   R(22,23)                1.2795         estimate D2E/DX2                !
 ! R39   R(23,25)                1.3784         estimate D2E/DX2                !
 ! R40   R(24,28)                1.8036         estimate D2E/DX2                !
 ! R41   R(24,29)                1.394          estimate D2E/DX2                !
 ! R42   R(24,33)                1.3993         estimate D2E/DX2                !
 ! R43   R(26,28)                1.8277         estimate D2E/DX2                !
 ! R44   R(26,34)                1.3997         estimate D2E/DX2                !
 ! R45   R(26,38)                1.3979         estimate D2E/DX2                !
 ! R46   R(27,28)                1.818          estimate D2E/DX2                !
 ! R47   R(27,39)                1.4018         estimate D2E/DX2                !
 ! R48   R(27,43)                1.4014         estimate D2E/DX2                !
 ! R49   R(29,30)                1.3922         estimate D2E/DX2                !
 ! R50   R(29,55)                1.0845         estimate D2E/DX2                !
 ! R51   R(30,31)                1.392          estimate D2E/DX2                !
 ! R52   R(30,56)                1.0851         estimate D2E/DX2                !
 ! R53   R(31,32)                1.394          estimate D2E/DX2                !
 ! R54   R(31,57)                1.0852         estimate D2E/DX2                !
 ! R55   R(32,33)                1.3917         estimate D2E/DX2                !
 ! R56   R(32,58)                1.0867         estimate D2E/DX2                !
 ! R57   R(33,59)                1.0869         estimate D2E/DX2                !
 ! R58   R(34,35)                1.39           estimate D2E/DX2                !
 ! R59   R(34,60)                1.0866         estimate D2E/DX2                !
 ! R60   R(35,36)                1.3936         estimate D2E/DX2                !
 ! R61   R(35,61)                1.0854         estimate D2E/DX2                !
 ! R62   R(36,37)                1.3919         estimate D2E/DX2                !
 ! R63   R(36,62)                1.0857         estimate D2E/DX2                !
 ! R64   R(37,38)                1.3927         estimate D2E/DX2                !
 ! R65   R(37,63)                1.0855         estimate D2E/DX2                !
 ! R66   R(38,64)                1.084          estimate D2E/DX2                !
 ! R67   R(39,40)                1.3892         estimate D2E/DX2                !
 ! R68   R(39,65)                1.0819         estimate D2E/DX2                !
 ! R69   R(40,41)                1.3935         estimate D2E/DX2                !
 ! R70   R(40,66)                1.0853         estimate D2E/DX2                !
 ! R71   R(41,42)                1.391          estimate D2E/DX2                !
 ! R72   R(41,67)                1.0856         estimate D2E/DX2                !
 ! R73   R(42,43)                1.3914         estimate D2E/DX2                !
 ! R74   R(42,68)                1.0851         estimate D2E/DX2                !
 ! R75   R(43,69)                1.0838         estimate D2E/DX2                !
 ! A1    A(2,1,6)              121.2652         estimate D2E/DX2                !
 ! A2    A(2,1,44)             120.0102         estimate D2E/DX2                !
 ! A3    A(6,1,44)             118.72           estimate D2E/DX2                !
 ! A4    A(1,2,3)              119.8689         estimate D2E/DX2                !
 ! A5    A(1,2,45)             119.8091         estimate D2E/DX2                !
 ! A6    A(3,2,45)             120.3217         estimate D2E/DX2                !
 ! A7    A(2,3,4)              119.997          estimate D2E/DX2                !
 ! A8    A(2,3,46)             120.4181         estimate D2E/DX2                !
 ! A9    A(4,3,46)             119.5844         estimate D2E/DX2                !
 ! A10   A(3,4,5)              119.1384         estimate D2E/DX2                !
 ! A11   A(3,4,47)             121.7661         estimate D2E/DX2                !
 ! A12   A(5,4,47)             119.0955         estimate D2E/DX2                !
 ! A13   A(4,5,6)              122.1937         estimate D2E/DX2                !
 ! A14   A(4,5,12)             115.2671         estimate D2E/DX2                !
 ! A15   A(6,5,12)             122.5042         estimate D2E/DX2                !
 ! A16   A(1,6,5)              117.5282         estimate D2E/DX2                !
 ! A17   A(1,6,7)              119.8768         estimate D2E/DX2                !
 ! A18   A(5,6,7)              122.5544         estimate D2E/DX2                !
 ! A19   A(6,7,11)             109.4204         estimate D2E/DX2                !
 ! A20   A(6,7,22)             113.2238         estimate D2E/DX2                !
 ! A21   A(6,7,48)             109.426          estimate D2E/DX2                !
 ! A22   A(11,7,22)            108.0911         estimate D2E/DX2                !
 ! A23   A(11,7,48)            110.3626         estimate D2E/DX2                !
 ! A24   A(22,7,48)            106.2675         estimate D2E/DX2                !
 ! A25   A(8,10,9)             120.3684         estimate D2E/DX2                !
 ! A26   A(8,10,11)            108.8979         estimate D2E/DX2                !
 ! A27   A(8,10,12)            106.3268         estimate D2E/DX2                !
 ! A28   A(9,10,11)            112.6315         estimate D2E/DX2                !
 ! A29   A(9,10,12)            108.2308         estimate D2E/DX2                !
 ! A30   A(11,10,12)            97.786          estimate D2E/DX2                !
 ! A31   A(7,11,10)            113.7213         estimate D2E/DX2                !
 ! A32   A(7,11,49)            111.5312         estimate D2E/DX2                !
 ! A33   A(10,11,49)           110.2255         estimate D2E/DX2                !
 ! A34   A(5,12,10)            117.3065         estimate D2E/DX2                !
 ! A35   A(14,13,19)           119.9972         estimate D2E/DX2                !
 ! A36   A(14,13,50)           120.207          estimate D2E/DX2                !
 ! A37   A(19,13,50)           119.795          estimate D2E/DX2                !
 ! A38   A(13,14,15)           120.1079         estimate D2E/DX2                !
 ! A39   A(13,14,51)           119.7794         estimate D2E/DX2                !
 ! A40   A(15,14,51)           120.1127         estimate D2E/DX2                !
 ! A41   A(14,15,16)           119.8402         estimate D2E/DX2                !
 ! A42   A(14,15,52)           120.0376         estimate D2E/DX2                !
 ! A43   A(16,15,52)           120.1218         estimate D2E/DX2                !
 ! A44   A(15,16,17)           120.1541         estimate D2E/DX2                !
 ! A45   A(15,16,53)           120.1274         estimate D2E/DX2                !
 ! A46   A(17,16,53)           119.7171         estimate D2E/DX2                !
 ! A47   A(16,17,19)           119.9755         estimate D2E/DX2                !
 ! A48   A(16,17,54)           120.9564         estimate D2E/DX2                !
 ! A49   A(19,17,54)           119.0667         estimate D2E/DX2                !
 ! A50   A(20,18,28)           109.4601         estimate D2E/DX2                !
 ! A51   A(13,19,17)           119.9224         estimate D2E/DX2                !
 ! A52   A(13,19,20)           120.3182         estimate D2E/DX2                !
 ! A53   A(17,19,20)           119.7485         estimate D2E/DX2                !
 ! A54   A(18,20,19)           104.7962         estimate D2E/DX2                !
 ! A55   A(18,20,21)           107.0151         estimate D2E/DX2                !
 ! A56   A(18,20,25)           105.0484         estimate D2E/DX2                !
 ! A57   A(19,20,21)           112.2124         estimate D2E/DX2                !
 ! A58   A(19,20,25)           119.042          estimate D2E/DX2                !
 ! A59   A(21,20,25)           107.8346         estimate D2E/DX2                !
 ! A60   A(20,21,22)           103.4976         estimate D2E/DX2                !
 ! A61   A(7,22,21)            119.5873         estimate D2E/DX2                !
 ! A62   A(7,22,23)            126.5273         estimate D2E/DX2                !
 ! A63   A(21,22,23)           113.8822         estimate D2E/DX2                !
 ! A64   A(22,23,25)           108.4065         estimate D2E/DX2                !
 ! A65   A(28,24,29)           123.7408         estimate D2E/DX2                !
 ! A66   A(28,24,33)           116.1816         estimate D2E/DX2                !
 ! A67   A(29,24,33)           120.067          estimate D2E/DX2                !
 ! A68   A(20,25,23)           105.9712         estimate D2E/DX2                !
 ! A69   A(28,26,34)           119.0038         estimate D2E/DX2                !
 ! A70   A(28,26,38)           121.5288         estimate D2E/DX2                !
 ! A71   A(34,26,38)           119.4254         estimate D2E/DX2                !
 ! A72   A(28,27,39)           122.4001         estimate D2E/DX2                !
 ! A73   A(28,27,43)           118.3361         estimate D2E/DX2                !
 ! A74   A(39,27,43)           119.2608         estimate D2E/DX2                !
 ! A75   A(18,28,24)           115.0202         estimate D2E/DX2                !
 ! A76   A(18,28,26)            96.7263         estimate D2E/DX2                !
 ! A77   A(18,28,27)           119.6905         estimate D2E/DX2                !
 ! A78   A(24,28,26)           101.8104         estimate D2E/DX2                !
 ! A79   A(24,28,27)           115.187          estimate D2E/DX2                !
 ! A80   A(26,28,27)           103.5566         estimate D2E/DX2                !
 ! A81   A(24,29,30)           119.7282         estimate D2E/DX2                !
 ! A82   A(24,29,55)           120.5947         estimate D2E/DX2                !
 ! A83   A(30,29,55)           119.6769         estimate D2E/DX2                !
 ! A84   A(29,30,31)           120.3234         estimate D2E/DX2                !
 ! A85   A(29,30,56)           119.542          estimate D2E/DX2                !
 ! A86   A(31,30,56)           120.1347         estimate D2E/DX2                !
 ! A87   A(30,31,32)           119.982          estimate D2E/DX2                !
 ! A88   A(30,31,57)           120.0588         estimate D2E/DX2                !
 ! A89   A(32,31,57)           119.9565         estimate D2E/DX2                !
 ! A90   A(31,32,33)           119.994          estimate D2E/DX2                !
 ! A91   A(31,32,58)           120.2025         estimate D2E/DX2                !
 ! A92   A(33,32,58)           119.7979         estimate D2E/DX2                !
 ! A93   A(24,33,32)           119.9013         estimate D2E/DX2                !
 ! A94   A(24,33,59)           120.2236         estimate D2E/DX2                !
 ! A95   A(32,33,59)           119.8726         estimate D2E/DX2                !
 ! A96   A(26,34,35)           120.3275         estimate D2E/DX2                !
 ! A97   A(26,34,60)           120.2979         estimate D2E/DX2                !
 ! A98   A(35,34,60)           119.3739         estimate D2E/DX2                !
 ! A99   A(34,35,36)           119.9973         estimate D2E/DX2                !
 ! A100  A(34,35,61)           119.7764         estimate D2E/DX2                !
 ! A101  A(36,35,61)           120.2258         estimate D2E/DX2                !
 ! A102  A(35,36,37)           119.9668         estimate D2E/DX2                !
 ! A103  A(35,36,62)           119.9912         estimate D2E/DX2                !
 ! A104  A(37,36,62)           120.0418         estimate D2E/DX2                !
 ! A105  A(36,37,38)           120.1954         estimate D2E/DX2                !
 ! A106  A(36,37,63)           120.1732         estimate D2E/DX2                !
 ! A107  A(38,37,63)           119.6313         estimate D2E/DX2                !
 ! A108  A(26,38,37)           120.0874         estimate D2E/DX2                !
 ! A109  A(26,38,64)           119.8183         estimate D2E/DX2                !
 ! A110  A(37,38,64)           120.0937         estimate D2E/DX2                !
 ! A111  A(27,39,40)           120.1284         estimate D2E/DX2                !
 ! A112  A(27,39,65)           119.2843         estimate D2E/DX2                !
 ! A113  A(40,39,65)           120.5319         estimate D2E/DX2                !
 ! A114  A(39,40,41)           120.2999         estimate D2E/DX2                !
 ! A115  A(39,40,66)           119.4946         estimate D2E/DX2                !
 ! A116  A(41,40,66)           120.1977         estimate D2E/DX2                !
 ! A117  A(40,41,42)           119.8932         estimate D2E/DX2                !
 ! A118  A(40,41,67)           120.0592         estimate D2E/DX2                !
 ! A119  A(42,41,67)           120.0467         estimate D2E/DX2                !
 ! A120  A(41,42,43)           120.1419         estimate D2E/DX2                !
 ! A121  A(41,42,68)           120.3458         estimate D2E/DX2                !
 ! A122  A(43,42,68)           119.5112         estimate D2E/DX2                !
 ! A123  A(27,43,42)           120.2513         estimate D2E/DX2                !
 ! A124  A(27,43,69)           120.7151         estimate D2E/DX2                !
 ! A125  A(42,43,69)           119.0331         estimate D2E/DX2                !
 ! D1    D(6,1,2,3)             -0.31           estimate D2E/DX2                !
 ! D2    D(6,1,2,45)           179.5026         estimate D2E/DX2                !
 ! D3    D(44,1,2,3)          -179.5199         estimate D2E/DX2                !
 ! D4    D(44,1,2,45)            0.2927         estimate D2E/DX2                !
 ! D5    D(2,1,6,5)              0.9744         estimate D2E/DX2                !
 ! D6    D(2,1,6,7)            178.7143         estimate D2E/DX2                !
 ! D7    D(44,1,6,5)          -179.8058         estimate D2E/DX2                !
 ! D8    D(44,1,6,7)            -2.0659         estimate D2E/DX2                !
 ! D9    D(1,2,3,4)             -0.4158         estimate D2E/DX2                !
 ! D10   D(1,2,3,46)           179.8236         estimate D2E/DX2                !
 ! D11   D(45,2,3,4)           179.7725         estimate D2E/DX2                !
 ! D12   D(45,2,3,46)            0.0119         estimate D2E/DX2                !
 ! D13   D(2,3,4,5)              0.4379         estimate D2E/DX2                !
 ! D14   D(2,3,4,47)          -179.5843         estimate D2E/DX2                !
 ! D15   D(46,3,4,5)          -179.7995         estimate D2E/DX2                !
 ! D16   D(46,3,4,47)            0.1783         estimate D2E/DX2                !
 ! D17   D(3,4,5,6)              0.2651         estimate D2E/DX2                !
 ! D18   D(3,4,5,12)           178.1633         estimate D2E/DX2                !
 ! D19   D(47,4,5,6)          -179.7133         estimate D2E/DX2                !
 ! D20   D(47,4,5,12)           -1.8151         estimate D2E/DX2                !
 ! D21   D(4,5,6,1)             -0.9579         estimate D2E/DX2                !
 ! D22   D(4,5,6,7)           -178.6328         estimate D2E/DX2                !
 ! D23   D(12,5,6,1)          -178.7041         estimate D2E/DX2                !
 ! D24   D(12,5,6,7)             3.621          estimate D2E/DX2                !
 ! D25   D(4,5,12,10)          157.2179         estimate D2E/DX2                !
 ! D26   D(6,5,12,10)          -24.8911         estimate D2E/DX2                !
 ! D27   D(1,6,7,11)           164.9118         estimate D2E/DX2                !
 ! D28   D(1,6,7,22)            44.2764         estimate D2E/DX2                !
 ! D29   D(1,6,7,48)           -74.0535         estimate D2E/DX2                !
 ! D30   D(5,6,7,11)           -17.4661         estimate D2E/DX2                !
 ! D31   D(5,6,7,22)          -138.1015         estimate D2E/DX2                !
 ! D32   D(5,6,7,48)           103.5686         estimate D2E/DX2                !
 ! D33   D(6,7,11,10)           52.4478         estimate D2E/DX2                !
 ! D34   D(6,7,11,49)          177.8501         estimate D2E/DX2                !
 ! D35   D(22,7,11,10)         176.1606         estimate D2E/DX2                !
 ! D36   D(22,7,11,49)         -58.4372         estimate D2E/DX2                !
 ! D37   D(48,7,11,10)         -68.0171         estimate D2E/DX2                !
 ! D38   D(48,7,11,49)          57.3851         estimate D2E/DX2                !
 ! D39   D(6,7,22,21)           46.0713         estimate D2E/DX2                !
 ! D40   D(6,7,22,23)         -133.2297         estimate D2E/DX2                !
 ! D41   D(11,7,22,21)         -75.315          estimate D2E/DX2                !
 ! D42   D(11,7,22,23)         105.384          estimate D2E/DX2                !
 ! D43   D(48,7,22,21)         166.2182         estimate D2E/DX2                !
 ! D44   D(48,7,22,23)         -13.0828         estimate D2E/DX2                !
 ! D45   D(8,10,11,7)         -177.1725         estimate D2E/DX2                !
 ! D46   D(8,10,11,49)          56.7334         estimate D2E/DX2                !
 ! D47   D(9,10,11,7)           46.6356         estimate D2E/DX2                !
 ! D48   D(9,10,11,49)         -79.4585         estimate D2E/DX2                !
 ! D49   D(12,10,11,7)         -66.8865         estimate D2E/DX2                !
 ! D50   D(12,10,11,49)        167.0193         estimate D2E/DX2                !
 ! D51   D(8,10,12,5)          163.3101         estimate D2E/DX2                !
 ! D52   D(9,10,12,5)          -66.0633         estimate D2E/DX2                !
 ! D53   D(11,10,12,5)          50.9339         estimate D2E/DX2                !
 ! D54   D(19,13,14,15)         -0.4006         estimate D2E/DX2                !
 ! D55   D(19,13,14,51)        179.6516         estimate D2E/DX2                !
 ! D56   D(50,13,14,15)        179.9284         estimate D2E/DX2                !
 ! D57   D(50,13,14,51)         -0.0193         estimate D2E/DX2                !
 ! D58   D(14,13,19,17)          0.0281         estimate D2E/DX2                !
 ! D59   D(14,13,19,20)        178.821          estimate D2E/DX2                !
 ! D60   D(50,13,19,17)        179.7004         estimate D2E/DX2                !
 ! D61   D(50,13,19,20)         -1.5067         estimate D2E/DX2                !
 ! D62   D(13,14,15,16)          0.3293         estimate D2E/DX2                !
 ! D63   D(13,14,15,52)       -179.9073         estimate D2E/DX2                !
 ! D64   D(51,14,15,16)       -179.7232         estimate D2E/DX2                !
 ! D65   D(51,14,15,52)          0.0403         estimate D2E/DX2                !
 ! D66   D(14,15,16,17)          0.1149         estimate D2E/DX2                !
 ! D67   D(14,15,16,53)        179.698          estimate D2E/DX2                !
 ! D68   D(52,15,16,17)       -179.6483         estimate D2E/DX2                !
 ! D69   D(52,15,16,53)         -0.0652         estimate D2E/DX2                !
 ! D70   D(15,16,17,19)         -0.487          estimate D2E/DX2                !
 ! D71   D(15,16,17,54)        179.0816         estimate D2E/DX2                !
 ! D72   D(53,16,17,19)        179.9282         estimate D2E/DX2                !
 ! D73   D(53,16,17,54)         -0.5032         estimate D2E/DX2                !
 ! D74   D(16,17,19,13)          0.415          estimate D2E/DX2                !
 ! D75   D(16,17,19,20)       -178.3848         estimate D2E/DX2                !
 ! D76   D(54,17,19,13)       -179.1618         estimate D2E/DX2                !
 ! D77   D(54,17,19,20)          2.0384         estimate D2E/DX2                !
 ! D78   D(28,18,20,19)       -118.1371         estimate D2E/DX2                !
 ! D79   D(28,18,20,21)        122.5395         estimate D2E/DX2                !
 ! D80   D(28,18,20,25)          8.087          estimate D2E/DX2                !
 ! D81   D(20,18,28,24)        -77.491          estimate D2E/DX2                !
 ! D82   D(20,18,28,26)        176.1006         estimate D2E/DX2                !
 ! D83   D(20,18,28,27)         66.288          estimate D2E/DX2                !
 ! D84   D(13,19,20,18)        -74.8574         estimate D2E/DX2                !
 ! D85   D(13,19,20,21)         40.914          estimate D2E/DX2                !
 ! D86   D(13,19,20,25)        168.1529         estimate D2E/DX2                !
 ! D87   D(17,19,20,18)        103.9376         estimate D2E/DX2                !
 ! D88   D(17,19,20,21)       -140.291          estimate D2E/DX2                !
 ! D89   D(17,19,20,25)        -13.0521         estimate D2E/DX2                !
 ! D90   D(18,20,21,22)       -106.3298         estimate D2E/DX2                !
 ! D91   D(19,20,21,22)        139.249          estimate D2E/DX2                !
 ! D92   D(25,20,21,22)          6.2322         estimate D2E/DX2                !
 ! D93   D(18,20,25,23)        107.7869         estimate D2E/DX2                !
 ! D94   D(19,20,25,23)       -135.3558         estimate D2E/DX2                !
 ! D95   D(21,20,25,23)         -6.0924         estimate D2E/DX2                !
 ! D96   D(20,21,22,7)         176.2396         estimate D2E/DX2                !
 ! D97   D(20,21,22,23)         -4.3748         estimate D2E/DX2                !
 ! D98   D(7,22,23,25)         179.9476         estimate D2E/DX2                !
 ! D99   D(21,22,23,25)          0.6124         estimate D2E/DX2                !
 ! D100  D(22,23,25,20)          3.4258         estimate D2E/DX2                !
 ! D101  D(29,24,28,18)        142.032          estimate D2E/DX2                !
 ! D102  D(29,24,28,26)       -114.6917         estimate D2E/DX2                !
 ! D103  D(29,24,28,27)         -3.4088         estimate D2E/DX2                !
 ! D104  D(33,24,28,18)        -39.1562         estimate D2E/DX2                !
 ! D105  D(33,24,28,26)         64.1201         estimate D2E/DX2                !
 ! D106  D(33,24,28,27)        175.403          estimate D2E/DX2                !
 ! D107  D(28,24,29,30)        179.2142         estimate D2E/DX2                !
 ! D108  D(28,24,29,55)         -0.6561         estimate D2E/DX2                !
 ! D109  D(33,24,29,30)          0.4462         estimate D2E/DX2                !
 ! D110  D(33,24,29,55)       -179.424          estimate D2E/DX2                !
 ! D111  D(28,24,33,32)       -179.227          estimate D2E/DX2                !
 ! D112  D(28,24,33,59)          0.1972         estimate D2E/DX2                !
 ! D113  D(29,24,33,32)         -0.3686         estimate D2E/DX2                !
 ! D114  D(29,24,33,59)        179.0556         estimate D2E/DX2                !
 ! D115  D(34,26,28,18)        161.1368         estimate D2E/DX2                !
 ! D116  D(34,26,28,24)         43.7664         estimate D2E/DX2                !
 ! D117  D(34,26,28,27)        -76.0787         estimate D2E/DX2                !
 ! D118  D(38,26,28,18)        -21.2353         estimate D2E/DX2                !
 ! D119  D(38,26,28,24)       -138.6057         estimate D2E/DX2                !
 ! D120  D(38,26,28,27)        101.5491         estimate D2E/DX2                !
 ! D121  D(28,26,34,35)        177.6994         estimate D2E/DX2                !
 ! D122  D(28,26,34,60)         -2.5961         estimate D2E/DX2                !
 ! D123  D(38,26,34,35)          0.0208         estimate D2E/DX2                !
 ! D124  D(38,26,34,60)        179.7253         estimate D2E/DX2                !
 ! D125  D(28,26,38,37)       -177.7555         estimate D2E/DX2                !
 ! D126  D(28,26,38,64)          2.5134         estimate D2E/DX2                !
 ! D127  D(34,26,38,37)         -0.1374         estimate D2E/DX2                !
 ! D128  D(34,26,38,64)       -179.8685         estimate D2E/DX2                !
 ! D129  D(39,27,28,18)        -93.9415         estimate D2E/DX2                !
 ! D130  D(39,27,28,24)         49.7802         estimate D2E/DX2                !
 ! D131  D(39,27,28,26)        160.0266         estimate D2E/DX2                !
 ! D132  D(43,27,28,18)         86.6887         estimate D2E/DX2                !
 ! D133  D(43,27,28,24)       -129.5896         estimate D2E/DX2                !
 ! D134  D(43,27,28,26)        -19.3433         estimate D2E/DX2                !
 ! D135  D(28,27,39,40)       -178.1357         estimate D2E/DX2                !
 ! D136  D(28,27,39,65)          4.5575         estimate D2E/DX2                !
 ! D137  D(43,27,39,40)          1.2286         estimate D2E/DX2                !
 ! D138  D(43,27,39,65)       -176.0783         estimate D2E/DX2                !
 ! D139  D(28,27,43,42)        179.5565         estimate D2E/DX2                !
 ! D140  D(28,27,43,69)         -0.7111         estimate D2E/DX2                !
 ! D141  D(39,27,43,42)          0.1664         estimate D2E/DX2                !
 ! D142  D(39,27,43,69)        179.8988         estimate D2E/DX2                !
 ! D143  D(24,29,30,31)          0.0221         estimate D2E/DX2                !
 ! D144  D(24,29,30,56)       -179.9678         estimate D2E/DX2                !
 ! D145  D(55,29,30,31)        179.8936         estimate D2E/DX2                !
 ! D146  D(55,29,30,56)         -0.0963         estimate D2E/DX2                !
 ! D147  D(29,30,31,32)         -0.5687         estimate D2E/DX2                !
 ! D148  D(29,30,31,57)       -179.968          estimate D2E/DX2                !
 ! D149  D(56,30,31,32)        179.4211         estimate D2E/DX2                !
 ! D150  D(56,30,31,57)          0.0218         estimate D2E/DX2                !
 ! D151  D(30,31,32,33)          0.6455         estimate D2E/DX2                !
 ! D152  D(30,31,32,58)       -178.4865         estimate D2E/DX2                !
 ! D153  D(57,31,32,33)       -179.9545         estimate D2E/DX2                !
 ! D154  D(57,31,32,58)          0.9134         estimate D2E/DX2                !
 ! D155  D(31,32,33,24)         -0.178          estimate D2E/DX2                !
 ! D156  D(31,32,33,59)       -179.6043         estimate D2E/DX2                !
 ! D157  D(58,32,33,24)        178.9575         estimate D2E/DX2                !
 ! D158  D(58,32,33,59)         -0.4687         estimate D2E/DX2                !
 ! D159  D(26,34,35,36)          0.0668         estimate D2E/DX2                !
 ! D160  D(26,34,35,61)        179.8316         estimate D2E/DX2                !
 ! D161  D(60,34,35,36)       -179.6404         estimate D2E/DX2                !
 ! D162  D(60,34,35,61)          0.1244         estimate D2E/DX2                !
 ! D163  D(34,35,36,37)         -0.0381         estimate D2E/DX2                !
 ! D164  D(34,35,36,62)        179.8052         estimate D2E/DX2                !
 ! D165  D(61,35,36,37)       -179.8018         estimate D2E/DX2                !
 ! D166  D(61,35,36,62)          0.0416         estimate D2E/DX2                !
 ! D167  D(35,36,37,38)         -0.0788         estimate D2E/DX2                !
 ! D168  D(35,36,37,63)        179.8004         estimate D2E/DX2                !
 ! D169  D(62,36,37,38)       -179.922          estimate D2E/DX2                !
 ! D170  D(62,36,37,63)         -0.0428         estimate D2E/DX2                !
 ! D171  D(36,37,38,26)          0.167          estimate D2E/DX2                !
 ! D172  D(36,37,38,64)        179.8973         estimate D2E/DX2                !
 ! D173  D(63,37,38,26)       -179.7129         estimate D2E/DX2                !
 ! D174  D(63,37,38,64)          0.0175         estimate D2E/DX2                !
 ! D175  D(27,39,40,41)         -1.5761         estimate D2E/DX2                !
 ! D176  D(27,39,40,66)        179.4339         estimate D2E/DX2                !
 ! D177  D(65,39,40,41)        175.6967         estimate D2E/DX2                !
 ! D178  D(65,39,40,66)         -3.2933         estimate D2E/DX2                !
 ! D179  D(39,40,41,42)          0.5171         estimate D2E/DX2                !
 ! D180  D(39,40,41,67)       -179.1353         estimate D2E/DX2                !
 ! D181  D(66,40,41,42)        179.5            estimate D2E/DX2                !
 ! D182  D(66,40,41,67)         -0.1524         estimate D2E/DX2                !
 ! D183  D(40,41,42,43)          0.8835         estimate D2E/DX2                !
 ! D184  D(40,41,42,68)       -179.509          estimate D2E/DX2                !
 ! D185  D(67,41,42,43)       -179.4641         estimate D2E/DX2                !
 ! D186  D(67,41,42,68)          0.1434         estimate D2E/DX2                !
 ! D187  D(41,42,43,27)         -1.2222         estimate D2E/DX2                !
 ! D188  D(41,42,43,69)        179.0409         estimate D2E/DX2                !
 ! D189  D(68,42,43,27)        179.167          estimate D2E/DX2                !
 ! D190  D(68,42,43,69)         -0.5698         estimate D2E/DX2                !
 --------------------------------------------------------------------------------
 Stoichiometry    C33H26N3O5PS
 Framework group  C1[X(C33H26N3O5PS)]
 Deg. of freedom   201
 Full point group                 C1      NOp   1
 Largest Abelian subgroup         C1      NOp   1
 Largest concise Abelian subgroup C1      NOp   1
                         Standard orientation:                         
 ---------------------------------------------------------------------
 Center     Atomic      Atomic             Coordinates (Angstroms)
 Number     Number       Type             X           Y           Z
 ---------------------------------------------------------------------
      1          6           0        3.841964    2.162577    0.876947
      2          6           0        4.787610    3.118213    0.531008
      3          6           0        5.837168    2.779474   -0.321494
      4          6           0        5.940068    1.486207   -0.815908
      5          6           0        4.982577    0.547000   -0.456911
      6          6           0        3.914111    0.859143    0.381531
      7          6           0        2.878646   -0.169583    0.803988
      8          8           0        4.414593   -3.051215   -1.226244
      9          8           0        5.130861   -2.148338    1.002161
     10         16           0        4.460243   -1.972298   -0.271392
     11          7           0        2.941915   -1.336214   -0.108717
     12          8           0        5.142032   -0.719687   -1.033183
     13          6           0       -0.265440    3.306800   -1.561584
     14          6           0       -0.675666    4.590436   -1.905062
     15          6           0       -1.539988    5.295924   -1.068488
     16          6           0       -1.986191    4.714748    0.115455
     17          6           0       -1.569346    3.432815    0.466103
     18          8           0       -1.112513    0.424553   -0.913661
     19          6           0       -0.712305    2.725781   -0.373607
     20          6           0       -0.293131    1.323770   -0.006792
     21          8           0        1.052462    1.081318   -0.297746
     22          6           0        1.489283    0.355942    0.785283
     23          7           0        0.610685    0.218618    1.705205
     24          6           0       -1.235603   -1.920542    0.757833
     25          7           0       -0.544755    0.852646    1.301651
     26          6           0       -2.938434   -1.321908   -1.406614
     27          6           0       -3.405657    0.224175    0.958677
     28         15           0       -2.063706   -0.518355   -0.017555
     29          6           0       -1.528952   -2.380333    2.040699
     30          6           0       -0.848326   -3.482068    2.551616
     31          6           0        0.122223   -4.124581    1.788159
     32          6           0        0.408100   -3.672393    0.500848
     33          6           0       -0.267347   -2.570550   -0.015541
     34          6           0       -3.611724   -2.527612   -1.178122
     35          6           0       -4.325684   -3.137923   -2.202765
     36          6           0       -4.372471   -2.550121   -3.465454
     37          6           0       -3.704696   -1.351538   -3.699550
     38          6           0       -2.990376   -0.735932   -2.674687
     39          6           0       -3.245364    0.584304    2.303894
     40          6           0       -4.314376    1.112916    3.016368
     41          6           0       -5.542577    1.319292    2.391253
     42          6           0       -5.703005    0.984801    1.050607
     43          6           0       -4.645574    0.427884    0.338080
     44          1           0        3.018698    2.426126    1.534928
     45          1           0        4.704206    4.126081    0.923297
     46          1           0        6.579542    3.520025   -0.599961
     47          1           0        6.748172    1.189787   -1.475423
     48          1           0        3.075248   -0.482228    1.837679
     49          1           0        2.282411   -2.063883    0.167498
     50          1           0        0.406627    2.755559   -2.212384
     51          1           0       -0.321367    5.041196   -2.827275
     52          1           0       -1.860795    6.297656   -1.338566
     53          1           0       -2.655454    5.261836    0.772788
     54          1           0       -1.897217    2.973216    1.392764
     55          1           0       -2.284325   -1.888771    2.643921
     56          1           0       -1.079459   -3.837755    3.550400
     57          1           0        0.649812   -4.983377    2.190497
     58          1           0        1.147537   -4.186270   -0.107431
     59          1           0       -0.047500   -2.223609   -1.021829
     60          1           0       -3.577159   -2.997786   -0.199121
     61          1           0       -4.842193   -4.074149   -2.016429
     62          1           0       -4.927524   -3.028516   -4.266537
     63          1           0       -3.736218   -0.892431   -4.682628
     64          1           0       -2.469537    0.196656   -2.859275
     65          1           0       -2.271696    0.486961    2.765383
     66          1           0       -4.181352    1.379617    4.059915
     67          1           0       -6.371302    1.745684    2.948053
     68          1           0       -6.653820    1.149766    0.554405
     69          1           0       -4.795124    0.159582   -0.701298
 ---------------------------------------------------------------------
 Rotational constants (GHZ):           0.1086363           0.0603727           0.0489222
 Electric field and nuclear coordinate derivatives read from checkpoint file.
 Rotating derivatives to standard orientation.
 Full mass-weighted force constant matrix:
 Low frequencies --- -158.0164   -5.5509   -0.0191   -0.0144    0.0147    2.3423
 Low frequencies ---    4.5074   15.0085   17.8334
 ******    1 imaginary frequencies (negative Signs) ****** 
 Diagonal vibrational polarizability:
      282.2961384     253.1690547     223.0755401
 Harmonic frequencies (cm**-1), IR intensities (KM/Mole), Raman scattering
 activities (A**4/AMU), depolarization ratios for plane and unpolarized
 incident light, reduced masses (AMU), force constants (mDyne/A),
 and normal coordinates:
                      1                      2                      3
                      A                      A                      A
 Frequencies --   -158.0156                14.7727                17.7378
 Red. masses --     11.9529                 6.1942                 5.8157
 Frc consts  --      0.1758                 0.0008                 0.0011
 IR Inten    --     98.3246                 0.4460                 1.4012
  Atom  AN      X      Y      Z        X      Y      Z        X      Y      Z
     1   6     0.02  -0.02  -0.01     0.05   0.01  -0.09     0.03  -0.02   0.07
     2   6     0.01  -0.01  -0.01     0.06  -0.02  -0.14     0.03  -0.02   0.09
     3   6     0.02  -0.00  -0.01     0.03  -0.07  -0.15     0.01   0.01   0.04
     4   6     0.03   0.00  -0.02    -0.00  -0.09  -0.11    -0.02   0.03  -0.01
     5   6     0.04  -0.01  -0.02    -0.02  -0.06  -0.06    -0.01   0.02  -0.02
     6   6     0.04  -0.02  -0.01     0.01  -0.01  -0.05     0.01  -0.00   0.02
     7   6     0.05  -0.03  -0.02    -0.01   0.03   0.00     0.01  -0.01   0.00
     8   8     0.05  -0.02  -0.02    -0.12  -0.07   0.04    -0.03   0.05  -0.12
     9   8     0.02  -0.01  -0.01    -0.06  -0.03   0.01     0.04  -0.01  -0.12
    10  16     0.03  -0.02  -0.02    -0.08  -0.04   0.02    -0.01   0.02  -0.09
    11   7     0.04  -0.02  -0.04    -0.06   0.00   0.03    -0.00   0.01  -0.02
    12   8     0.04  -0.01  -0.01    -0.06  -0.08  -0.03    -0.04   0.04  -0.08
    13   6    -0.02  -0.04   0.05    -0.06   0.05   0.05    -0.11  -0.03   0.01
    14   6    -0.02  -0.06  -0.00    -0.08   0.06   0.08    -0.14  -0.03   0.03
    15   6    -0.02  -0.02  -0.04    -0.05   0.05   0.11    -0.10  -0.04   0.07
    16   6    -0.04   0.03  -0.03    -0.00   0.04   0.12    -0.02  -0.03   0.11
    17   6    -0.04   0.05   0.03     0.01   0.04   0.10     0.02  -0.02   0.09
    18   8    -0.07  -0.09   0.15     0.01   0.05   0.03     0.05  -0.03   0.01
    19   6    -0.02   0.01   0.08    -0.02   0.05   0.06    -0.03  -0.02   0.04
    20   6     0.12   0.13   0.31    -0.01   0.04   0.04     0.01  -0.01   0.03
    21   8     0.00   0.03   0.10    -0.00   0.07   0.04     0.02   0.02   0.04
    22   6     0.09  -0.02   0.05     0.00   0.05   0.03     0.01  -0.01   0.02
    23   7     0.18   0.16   0.16     0.00   0.02   0.02     0.01  -0.04   0.01
    24   6    -0.02   0.07   0.00     0.02   0.03   0.02    -0.01  -0.02   0.04
    25   7     0.27   0.34   0.31    -0.00   0.02   0.03     0.00  -0.04   0.02
    26   6    -0.11  -0.10  -0.08     0.07   0.01  -0.02     0.04  -0.03   0.01
    27   6    -0.02  -0.02  -0.04    -0.02  -0.01  -0.02     0.02   0.03  -0.04
    28  15    -0.16  -0.10  -0.16     0.02   0.02   0.00     0.03  -0.01   0.01
    29   6    -0.05   0.04  -0.02     0.06   0.08   0.04    -0.05  -0.01   0.03
    30   6    -0.04   0.05  -0.01     0.07   0.09   0.06    -0.07  -0.02   0.05
    31   6    -0.03   0.05  -0.00     0.03   0.05   0.06    -0.06  -0.03   0.08
    32   6    -0.01   0.07   0.01    -0.00  -0.00   0.03    -0.02  -0.04   0.09
    33   6     0.01   0.08   0.02    -0.01  -0.02   0.01     0.00  -0.03   0.07
    34   6    -0.10  -0.10  -0.07     0.11  -0.02  -0.05    -0.03   0.02   0.05
    35   6    -0.07  -0.08  -0.09     0.15  -0.03  -0.08    -0.02  -0.00   0.05
    36   6    -0.05  -0.05  -0.08     0.16  -0.02  -0.07     0.06  -0.07   0.02
    37   6    -0.04  -0.05  -0.07     0.12   0.01  -0.04     0.13  -0.11  -0.02
    38   6    -0.06  -0.06  -0.06     0.07   0.02  -0.01     0.12  -0.09  -0.02
    39   6     0.01  -0.03  -0.04    -0.03   0.05  -0.03    -0.02   0.02  -0.03
    40   6     0.03  -0.01  -0.03    -0.06   0.01  -0.05    -0.02   0.08  -0.07
    41   6     0.02   0.01   0.00    -0.08  -0.08  -0.05     0.02   0.16  -0.13
    42   6    -0.01   0.01   0.01    -0.06  -0.14  -0.04     0.06   0.17  -0.14
    43   6    -0.03   0.00  -0.02    -0.03  -0.10  -0.02     0.06   0.11  -0.09
    44   1     0.02  -0.04  -0.01     0.07   0.05  -0.08     0.05  -0.05   0.10
    45   1     0.01  -0.01  -0.01     0.09  -0.01  -0.17     0.05  -0.03   0.13
    46   1     0.01   0.01  -0.01     0.04  -0.10  -0.19     0.00   0.02   0.06
    47   1     0.03   0.01  -0.02    -0.03  -0.13  -0.12    -0.03   0.05  -0.04
    48   1     0.08  -0.06  -0.03     0.01   0.04   0.01     0.02  -0.03  -0.01
    49   1     0.04  -0.01  -0.05    -0.07   0.03   0.05     0.01  -0.00  -0.02
    50   1    -0.00  -0.06   0.09    -0.09   0.06   0.02    -0.14  -0.03  -0.03
    51   1    -0.00  -0.09  -0.02    -0.11   0.06   0.07    -0.20  -0.04   0.00
    52   1    -0.01  -0.03  -0.08    -0.05   0.05   0.13    -0.13  -0.04   0.08
    53   1    -0.05   0.05  -0.06     0.02   0.04   0.15     0.01  -0.03   0.14
    54   1    -0.02   0.10   0.06     0.04   0.03   0.11     0.08  -0.02   0.11
    55   1    -0.07   0.01  -0.03     0.09   0.11   0.05    -0.06  -0.00   0.01
    56   1    -0.05   0.04  -0.02     0.10   0.13   0.09    -0.10  -0.01   0.05
    57   1    -0.03   0.05  -0.01     0.04   0.06   0.07    -0.08  -0.03   0.10
    58   1    -0.00   0.08   0.01    -0.03  -0.03   0.02    -0.01  -0.05   0.11
    59   1     0.04   0.10   0.03    -0.04  -0.06  -0.01     0.03  -0.04   0.07
    60   1    -0.10  -0.10  -0.07     0.11  -0.03  -0.06    -0.10   0.07   0.07
    61   1    -0.08  -0.08  -0.12     0.18  -0.05  -0.10    -0.07   0.03   0.08
    62   1    -0.04  -0.04  -0.10     0.19  -0.03  -0.09     0.07  -0.08   0.02
    63   1    -0.03  -0.04  -0.07     0.12   0.02  -0.03     0.19  -0.16  -0.04
    64   1    -0.04  -0.07  -0.01     0.04   0.04   0.01     0.17  -0.12  -0.05
    65   1     0.02  -0.05  -0.07    -0.03   0.12  -0.03    -0.04  -0.03   0.02
    66   1     0.06  -0.01  -0.03    -0.07   0.06  -0.06    -0.05   0.07  -0.07
    67   1     0.04   0.01   0.02    -0.10  -0.11  -0.07     0.02   0.20  -0.16
    68   1    -0.02   0.02   0.02    -0.07  -0.21  -0.04     0.09   0.23  -0.18
    69   1    -0.06   0.01  -0.01    -0.02  -0.15  -0.01     0.09   0.12  -0.10
                      4                      5                      6
                      A                      A                      A
 Frequencies --     18.5401                26.0560                26.9805
 Red. masses --      5.9741                 4.8047                 4.8529
 Frc consts  --      0.0012                 0.0019                 0.0021
 IR Inten    --      1.2645                 0.1510                 0.1921
  Atom  AN      X      Y      Z        X      Y      Z        X      Y      Z
     1   6     0.01  -0.06   0.13    -0.05  -0.01  -0.00    -0.03  -0.01   0.02
     2   6     0.04  -0.05   0.21    -0.08   0.02  -0.04    -0.07   0.02  -0.01
     3   6     0.04  -0.02   0.20    -0.11   0.04  -0.08    -0.08   0.05  -0.04
     4   6     0.02   0.01   0.12    -0.09   0.05  -0.08    -0.07   0.06  -0.05
     5   6    -0.00   0.00   0.05    -0.06   0.02  -0.05    -0.03   0.03  -0.03
     6   6    -0.01  -0.03   0.05    -0.03  -0.00  -0.01    -0.01  -0.00   0.00
     7   6    -0.03  -0.03  -0.02    -0.01  -0.02   0.01     0.01  -0.02   0.02
     8   8    -0.05   0.06  -0.17     0.00   0.01  -0.02     0.06   0.02  -0.01
     9   8    -0.05  -0.08  -0.11     0.06   0.03  -0.05     0.10   0.05  -0.04
    10  16    -0.04   0.00  -0.11     0.01   0.01  -0.03     0.05   0.02  -0.02
    11   7    -0.03   0.01  -0.08    -0.00  -0.03   0.02     0.03  -0.03   0.03
    12   8    -0.02   0.04  -0.03    -0.05   0.03  -0.06    -0.02   0.04  -0.04
    13   6     0.04  -0.01  -0.04     0.22   0.07   0.12    -0.04  -0.08  -0.06
    14   6     0.06  -0.01  -0.06     0.27   0.09   0.14    -0.01  -0.07  -0.06
    15   6     0.07   0.02  -0.07     0.16   0.05   0.06     0.10  -0.01   0.00
    16   6     0.06   0.05  -0.07    -0.01  -0.01  -0.04     0.18   0.05   0.06
    17   6     0.03   0.05  -0.05    -0.07  -0.04  -0.05     0.15   0.04   0.06
    18   8    -0.03   0.02   0.00    -0.03   0.01   0.01     0.01  -0.03   0.01
    19   6     0.02   0.02  -0.03     0.05   0.00   0.03     0.04  -0.03  -0.00
    20   6    -0.00   0.01  -0.01     0.00  -0.01   0.02     0.01  -0.04  -0.00
    21   8    -0.01  -0.01  -0.02    -0.01  -0.05   0.01     0.01  -0.05   0.00
    22   6    -0.02  -0.01  -0.01    -0.01  -0.04   0.02     0.01  -0.04   0.01
    23   7    -0.01   0.02  -0.00    -0.01  -0.01   0.02     0.00  -0.03   0.01
    24   6     0.01   0.03   0.02    -0.02   0.00   0.01    -0.04  -0.01   0.03
    25   7    -0.00   0.04  -0.01    -0.01  -0.01   0.02     0.01  -0.03   0.00
    26   6     0.00  -0.01   0.01    -0.00  -0.02   0.00     0.00   0.01  -0.01
    27   6    -0.03  -0.00   0.01    -0.02  -0.01  -0.00    -0.01   0.00  -0.01
    28  15    -0.02   0.01   0.01    -0.02  -0.00   0.01    -0.01  -0.01   0.01
    29   6     0.09   0.10   0.06    -0.03   0.01   0.01    -0.11  -0.01   0.02
    30   6     0.11   0.12   0.08    -0.03   0.01   0.02    -0.14  -0.01   0.05
    31   6     0.06   0.08   0.05    -0.02   0.00   0.03    -0.10  -0.02   0.10
    32   6    -0.01   0.01   0.01    -0.01   0.00   0.03    -0.03  -0.01   0.11
    33   6    -0.04  -0.01  -0.01    -0.01  -0.00   0.02    -0.00  -0.01   0.08
    34   6     0.03  -0.03   0.02    -0.03   0.00   0.02     0.08  -0.05  -0.07
    35   6     0.05  -0.06   0.02    -0.00  -0.02   0.02     0.09  -0.02  -0.09
    36   6     0.03  -0.06   0.02     0.05  -0.07  -0.00     0.01   0.06  -0.05
    37   6    -0.00  -0.04   0.02     0.08  -0.09  -0.02    -0.07   0.12   0.01
    38   6    -0.02  -0.02   0.01     0.05  -0.06  -0.02    -0.07   0.09   0.03
    39   6    -0.01   0.07  -0.01    -0.03  -0.00  -0.00    -0.00   0.05  -0.02
    40   6    -0.02   0.04  -0.01    -0.03   0.01  -0.02    -0.01   0.04  -0.02
    41   6    -0.06  -0.06   0.01    -0.03   0.01  -0.03    -0.03  -0.02  -0.00
    42   6    -0.07  -0.14   0.04    -0.02   0.00  -0.03    -0.04  -0.07   0.01
    43   6    -0.06  -0.11   0.03    -0.02  -0.00  -0.01    -0.03  -0.06   0.01
    44   1     0.01  -0.09   0.14    -0.03  -0.03   0.03    -0.02  -0.03   0.04
    45   1     0.05  -0.08   0.27    -0.09   0.01  -0.03    -0.08   0.01   0.01
    46   1     0.06  -0.02   0.25    -0.14   0.06  -0.11    -0.11   0.08  -0.06
    47   1     0.02   0.03   0.11    -0.11   0.07  -0.11    -0.08   0.09  -0.08
    48   1    -0.05  -0.09  -0.03     0.01  -0.01   0.02     0.02  -0.01   0.02
    49   1    -0.04   0.00  -0.12     0.02  -0.04   0.04     0.07  -0.05   0.05
    50   1     0.03  -0.03  -0.03     0.31   0.11   0.19    -0.13  -0.14  -0.11
    51   1     0.07  -0.03  -0.07     0.41   0.14   0.22    -0.07  -0.12  -0.10
    52   1     0.10   0.03  -0.09     0.21   0.07   0.07     0.13   0.00   0.00
    53   1     0.07   0.07  -0.08    -0.09  -0.05  -0.10     0.27   0.10   0.10
    54   1     0.02   0.07  -0.04    -0.19  -0.08  -0.12     0.21   0.07   0.09
    55   1     0.13   0.14   0.08    -0.03   0.01   0.01    -0.14  -0.01  -0.02
    56   1     0.17   0.18   0.11    -0.04   0.01   0.02    -0.19  -0.01   0.04
    57   1     0.09   0.10   0.06    -0.03   0.01   0.04    -0.13  -0.02   0.12
    58   1    -0.05  -0.02  -0.01    -0.01  -0.00   0.04    -0.01  -0.02   0.15
    59   1    -0.10  -0.06  -0.04    -0.00  -0.00   0.02     0.05  -0.01   0.09
    60   1     0.05  -0.03   0.02    -0.07   0.03   0.04     0.14  -0.11  -0.11
    61   1     0.08  -0.07   0.03    -0.03  -0.01   0.04     0.15  -0.06  -0.14
    62   1     0.04  -0.08   0.02     0.07  -0.09  -0.00     0.01   0.09  -0.07
    63   1    -0.02  -0.05   0.01     0.12  -0.12  -0.04    -0.13   0.18   0.04
    64   1    -0.04  -0.01   0.01     0.07  -0.08  -0.03    -0.13   0.13   0.07
    65   1     0.01   0.15  -0.04    -0.03  -0.00   0.00     0.01   0.09  -0.03
    66   1    -0.01   0.10  -0.03    -0.04   0.01  -0.02     0.00   0.08  -0.03
    67   1    -0.07  -0.09   0.02    -0.03   0.02  -0.03    -0.03  -0.03  -0.00
    68   1    -0.10  -0.22   0.05    -0.02   0.01  -0.03    -0.06  -0.13   0.02
    69   1    -0.07  -0.16   0.05    -0.01  -0.01  -0.02    -0.04  -0.10   0.02
                      7                      8                      9
                      A                      A                      A
 Frequencies --     33.1872                39.9363                46.6941
 Red. masses --      4.9175                 4.8305                 5.4004
 Frc consts  --      0.0032                 0.0045                 0.0069
 IR Inten    --      0.7362                 0.4653                 0.3031
  Atom  AN      X      Y      Z        X      Y      Z        X      Y      Z
     1   6    -0.07   0.01  -0.06     0.04   0.01   0.05    -0.02  -0.02   0.08
     2   6    -0.08   0.02  -0.04     0.03  -0.00   0.02    -0.06  -0.01   0.02
     3   6    -0.04   0.03   0.00    -0.01  -0.00  -0.03    -0.12   0.02  -0.06
     4   6     0.01   0.02   0.04    -0.05   0.00  -0.05    -0.13   0.02  -0.08
     5   6     0.02   0.00   0.02    -0.04   0.01  -0.02    -0.09   0.00  -0.01
     6   6    -0.02   0.00  -0.02    -0.00   0.01   0.03    -0.04  -0.02   0.06
     7   6    -0.01  -0.02  -0.04    -0.01   0.03   0.05    -0.02  -0.02   0.09
     8   8     0.09  -0.01   0.04    -0.09   0.01   0.01    -0.07  -0.01   0.03
     9   8    -0.02   0.01   0.07     0.02   0.02  -0.03     0.04   0.02  -0.02
    10  16     0.03  -0.00   0.03    -0.04   0.01   0.00    -0.04  -0.00   0.02
    11   7     0.02  -0.01  -0.04    -0.03   0.01   0.07    -0.03  -0.03   0.10
    12   8     0.07  -0.00   0.06    -0.08   0.01  -0.04    -0.10   0.01  -0.03
    13   6    -0.08  -0.02  -0.03    -0.02  -0.04  -0.08    -0.01  -0.08  -0.02
    14   6    -0.02   0.01   0.02    -0.01  -0.05  -0.12     0.01  -0.09  -0.06
    15   6     0.12   0.07   0.12     0.05   0.01  -0.10     0.03  -0.04  -0.07
    16   6     0.20   0.09   0.16     0.10   0.08  -0.05     0.05   0.01  -0.03
    17   6     0.15   0.06   0.11     0.08   0.08  -0.02     0.04   0.02   0.01
    18   8    -0.05   0.01  -0.02     0.02   0.02   0.01     0.01  -0.02   0.03
    19   6     0.01   0.00   0.02     0.02   0.02  -0.03     0.01  -0.03   0.02
    20   6    -0.02  -0.01  -0.01     0.01   0.03   0.01     0.00  -0.02   0.05
    21   8    -0.03  -0.03  -0.04     0.01   0.03   0.03     0.00  -0.03   0.08
    22   6    -0.02  -0.03  -0.04    -0.00   0.04   0.05    -0.02  -0.02   0.09
    23   7    -0.01  -0.03  -0.03    -0.01   0.05   0.04    -0.03  -0.01   0.08
    24   6    -0.01   0.01  -0.04     0.01   0.01  -0.00     0.04  -0.03  -0.02
    25   7    -0.01  -0.02  -0.02    -0.01   0.05   0.02    -0.02  -0.01   0.05
    26   6    -0.04  -0.02  -0.01     0.02   0.03   0.01     0.01  -0.01  -0.00
    27   6    -0.03   0.00  -0.02     0.01  -0.01   0.03     0.00  -0.02  -0.00
    28  15    -0.04  -0.00  -0.02     0.01   0.03   0.01     0.01  -0.03   0.01
    29   6     0.05   0.03  -0.01    -0.05  -0.05  -0.04     0.16   0.00   0.02
    30   6     0.09   0.05  -0.02    -0.08  -0.09  -0.07     0.23   0.04  -0.00
    31   6     0.06   0.04  -0.05    -0.07  -0.06  -0.07     0.18   0.03  -0.07
    32   6     0.00   0.02  -0.07    -0.01   0.00  -0.03     0.06  -0.00  -0.10
    33   6    -0.03   0.00  -0.07     0.03   0.04  -0.00    -0.01  -0.03  -0.08
    34   6    -0.11   0.02   0.05    -0.08   0.08   0.04     0.01  -0.02  -0.03
    35   6    -0.11  -0.01   0.07    -0.05   0.06   0.04    -0.01   0.02  -0.04
    36   6    -0.04  -0.09   0.03     0.07  -0.02  -0.01    -0.04   0.07  -0.01
    37   6     0.03  -0.13  -0.03     0.17  -0.08  -0.04    -0.05   0.08   0.01
    38   6     0.03  -0.10  -0.04     0.14  -0.06  -0.04    -0.02   0.04   0.02
    39   6    -0.02   0.02  -0.02     0.01  -0.07   0.04    -0.02  -0.04   0.01
    40   6    -0.02   0.03  -0.03    -0.01  -0.13   0.07    -0.02   0.01  -0.03
    41   6    -0.02   0.01  -0.02    -0.01  -0.14   0.09     0.02   0.09  -0.07
    42   6    -0.03  -0.00  -0.02    -0.01  -0.07   0.07     0.05   0.12  -0.08
    43   6    -0.03  -0.01  -0.01     0.01  -0.00   0.04     0.04   0.06  -0.04
    44   1    -0.10   0.01  -0.09     0.07   0.01   0.09     0.02  -0.04   0.14
    45   1    -0.11   0.03  -0.07     0.06  -0.01   0.04    -0.05  -0.01   0.04
    46   1    -0.04   0.04   0.01    -0.01  -0.01  -0.05    -0.15   0.03  -0.11
    47   1     0.04   0.02   0.07    -0.08  -0.00  -0.09    -0.17   0.04  -0.13
    48   1    -0.02  -0.02  -0.04    -0.00   0.04   0.06    -0.00  -0.01   0.09
    49   1     0.01  -0.01  -0.07    -0.03   0.02   0.09    -0.02  -0.03   0.11
    50   1    -0.18  -0.06  -0.10    -0.07  -0.09  -0.09    -0.03  -0.12  -0.01
    51   1    -0.09  -0.01  -0.01    -0.04  -0.10  -0.16    -0.01  -0.13  -0.08
    52   1     0.16   0.09   0.16     0.07   0.01  -0.13     0.04  -0.05  -0.10
    53   1     0.31   0.13   0.24     0.15   0.13  -0.05     0.07   0.04  -0.04
    54   1     0.21   0.07   0.14     0.11   0.13   0.02     0.05   0.05   0.03
    55   1     0.08   0.04   0.01    -0.06  -0.07  -0.04     0.20   0.01   0.07
    56   1     0.14   0.07  -0.00    -0.13  -0.13  -0.10     0.32   0.06   0.03
    57   1     0.09   0.06  -0.06    -0.10  -0.09  -0.10     0.24   0.06  -0.08
    58   1    -0.02   0.02  -0.09     0.00   0.02  -0.03     0.02  -0.00  -0.15
    59   1    -0.08  -0.01  -0.08     0.07   0.09   0.02    -0.09  -0.05  -0.10
    60   1    -0.16   0.08   0.08    -0.18   0.15   0.08     0.04  -0.05  -0.05
    61   1    -0.16   0.03   0.11    -0.13   0.11   0.07    -0.00   0.01  -0.06
    62   1    -0.04  -0.11   0.04     0.09  -0.04  -0.01    -0.06   0.10  -0.02
    63   1     0.08  -0.20  -0.06     0.26  -0.15  -0.08    -0.07   0.12   0.03
    64   1     0.07  -0.14  -0.09     0.21  -0.10  -0.06    -0.03   0.05   0.04
    65   1    -0.02   0.03  -0.03     0.01  -0.07   0.04    -0.05  -0.09   0.04
    66   1    -0.01   0.04  -0.03    -0.01  -0.19   0.09    -0.04  -0.01  -0.02
    67   1    -0.02   0.02  -0.02    -0.02  -0.19   0.11     0.02   0.14  -0.09
    68   1    -0.03  -0.01  -0.01    -0.01  -0.06   0.08     0.07   0.18  -0.11
    69   1    -0.04  -0.02  -0.01     0.01   0.05   0.02     0.06   0.08  -0.05
                     10                     11                     12
                      A                      A                      A
 Frequencies --     51.5940                57.2246                69.6111
 Red. masses --      4.7354                 5.3658                 5.9293
 Frc consts  --      0.0074                 0.0104                 0.0169
 IR Inten    --      0.5158                 0.3670                 0.0925
  Atom  AN      X      Y      Z        X      Y      Z        X      Y      Z
     1   6    -0.01   0.02  -0.01    -0.10  -0.02  -0.04     0.08  -0.07   0.11
     2   6     0.00   0.01   0.00    -0.14   0.01  -0.04     0.09  -0.07   0.12
     3   6     0.01  -0.01   0.02    -0.10   0.04  -0.01     0.03  -0.05   0.04
     4   6     0.01  -0.01   0.02    -0.03   0.03   0.03    -0.03  -0.01  -0.06
     5   6    -0.01  -0.00   0.01    -0.00  -0.01   0.02    -0.04  -0.01  -0.06
     6   6    -0.02   0.01  -0.00    -0.04  -0.03  -0.01     0.01  -0.03   0.01
     7   6    -0.03   0.02  -0.01    -0.02  -0.06  -0.03     0.00  -0.02   0.02
     8   8    -0.05   0.01  -0.01     0.08  -0.00  -0.03     0.06  -0.07   0.14
     9   8    -0.06  -0.02   0.01    -0.04  -0.05   0.02     0.17   0.18   0.00
    10  16    -0.04   0.00  -0.00     0.02  -0.03  -0.01     0.06   0.01   0.04
    11   7    -0.04   0.02  -0.01     0.01  -0.03  -0.07     0.03  -0.07   0.09
    12   8    -0.01  -0.00   0.02     0.06  -0.01   0.05    -0.10   0.01  -0.12
    13   6    -0.01   0.01  -0.01    -0.01  -0.03  -0.00    -0.01   0.03   0.01
    14   6     0.03   0.02  -0.00    -0.05  -0.06  -0.04    -0.06   0.02   0.02
    15   6     0.07   0.05   0.01    -0.08  -0.06  -0.07    -0.09  -0.01   0.02
    16   6     0.07   0.07   0.02    -0.06  -0.04  -0.05    -0.06  -0.04   0.02
    17   6     0.02   0.05   0.01    -0.02  -0.02  -0.01    -0.02  -0.02   0.01
    18   8    -0.05   0.02   0.01    -0.02   0.01   0.04    -0.02   0.03  -0.02
    19   6    -0.01   0.02  -0.01     0.00  -0.01   0.01     0.00   0.01   0.00
    20   6    -0.03   0.02  -0.00    -0.00  -0.01   0.01     0.01   0.01  -0.01
    21   8    -0.03   0.01  -0.01    -0.01  -0.04  -0.01     0.01  -0.02  -0.02
    22   6    -0.02   0.03  -0.00    -0.02  -0.06  -0.02     0.00  -0.02  -0.02
    23   7    -0.02   0.04   0.01    -0.00  -0.04  -0.01     0.00  -0.01  -0.02
    24   6     0.01   0.01  -0.00    -0.04  -0.00   0.01    -0.01   0.03  -0.04
    25   7    -0.02   0.03   0.00     0.01  -0.01   0.02     0.01   0.00  -0.02
    26   6    -0.01  -0.03   0.03    -0.02   0.05   0.01    -0.03   0.01   0.00
    27   6    -0.00   0.00   0.03    -0.00   0.03   0.07    -0.02   0.03   0.01
    28  15    -0.02  -0.00   0.02    -0.03   0.02   0.04    -0.02   0.03  -0.01
    29   6    -0.03  -0.07  -0.04     0.02   0.03   0.03     0.02   0.02  -0.04
    30   6    -0.05  -0.11  -0.09     0.04   0.03   0.02    -0.00  -0.01  -0.08
    31   6    -0.03  -0.07  -0.11    -0.00   0.01  -0.01    -0.05  -0.03  -0.12
    32   6     0.01   0.01  -0.07    -0.06  -0.02  -0.04    -0.07  -0.02  -0.12
    33   6     0.03   0.05  -0.02    -0.08  -0.02  -0.02    -0.05   0.01  -0.08
    34   6     0.14  -0.12   0.01    -0.03   0.05  -0.04    -0.01   0.00   0.02
    35   6     0.21  -0.19  -0.01     0.08   0.03  -0.11     0.02  -0.04   0.03
    36   6     0.13  -0.16   0.01     0.21   0.01  -0.12     0.03  -0.07   0.01
    37   6    -0.04  -0.07   0.04     0.21   0.02  -0.07    -0.00  -0.06  -0.01
    38   6    -0.10  -0.00   0.05     0.09   0.04  -0.00    -0.03  -0.02  -0.01
    39   6     0.00  -0.03   0.04     0.04   0.06   0.06     0.03   0.15  -0.03
    40   6     0.03   0.03   0.03     0.07   0.09   0.08     0.05   0.18  -0.03
    41   6     0.05   0.11   0.01     0.05   0.09   0.11     0.01   0.08   0.02
    42   6     0.04   0.13   0.01     0.01   0.05   0.12    -0.05  -0.07   0.06
    43   6     0.02   0.08   0.02    -0.02   0.02   0.10    -0.06  -0.08   0.06
    44   1    -0.02   0.03  -0.02    -0.13  -0.04  -0.07     0.13  -0.09   0.17
    45   1     0.01   0.01  -0.00    -0.19   0.02  -0.07     0.15  -0.10   0.20
    46   1     0.02  -0.02   0.03    -0.13   0.06  -0.01     0.04  -0.05   0.05
    47   1     0.01  -0.02   0.04    -0.01   0.05   0.05    -0.07   0.00  -0.12
    48   1    -0.03   0.01  -0.01    -0.01  -0.08  -0.04    -0.02   0.03   0.04
    49   1    -0.04   0.03  -0.02     0.01  -0.04  -0.11     0.07  -0.09   0.14
    50   1    -0.04  -0.01  -0.02     0.01  -0.03   0.01     0.00   0.06   0.00
    51   1     0.03   0.01  -0.01    -0.06  -0.07  -0.06    -0.08   0.04   0.02
    52   1     0.11   0.07   0.02    -0.11  -0.08  -0.10    -0.13  -0.03   0.02
    53   1     0.10   0.09   0.03    -0.08  -0.04  -0.07    -0.08  -0.06   0.02
    54   1     0.02   0.06   0.01    -0.02  -0.00  -0.01    -0.00  -0.04   0.01
    55   1    -0.04  -0.11  -0.03     0.06   0.05   0.06     0.06   0.05  -0.00
    56   1    -0.07  -0.17  -0.12     0.09   0.05   0.04     0.02  -0.02  -0.08
    57   1    -0.05  -0.10  -0.15     0.01   0.01  -0.02    -0.07  -0.06  -0.16
    58   1     0.02   0.04  -0.09    -0.09  -0.03  -0.06    -0.10  -0.03  -0.15
    59   1     0.05   0.11   0.01    -0.12  -0.04  -0.04    -0.06   0.03  -0.08
    60   1     0.21  -0.15  -0.01    -0.12   0.06  -0.04    -0.01   0.03   0.03
    61   1     0.34  -0.26  -0.03     0.07   0.02  -0.15     0.04  -0.04   0.04
    62   1     0.19  -0.22  -0.00     0.30  -0.02  -0.18     0.05  -0.10   0.02
    63   1    -0.10  -0.04   0.05     0.30   0.00  -0.08     0.00  -0.08  -0.02
    64   1    -0.21   0.06   0.07     0.10   0.04   0.03    -0.04  -0.01  -0.03
    65   1    -0.01  -0.09   0.05     0.05   0.06   0.03     0.06   0.22  -0.07
    66   1     0.03   0.00   0.04     0.11   0.12   0.07     0.09   0.29  -0.06
    67   1     0.07   0.16   0.01     0.08   0.12   0.12     0.02   0.10   0.02
    68   1     0.06   0.20  -0.00    -0.01   0.05   0.15    -0.08  -0.16   0.10
    69   1     0.02   0.09   0.01    -0.05   0.00   0.11    -0.10  -0.18   0.09
                     13                     14                     15
                      A                      A                      A
 Frequencies --     73.3898                84.8013                91.7860
 Red. masses --      5.2174                 5.6803                 4.5140
 Frc consts  --      0.0166                 0.0241                 0.0224
 IR Inten    --      0.8803                 0.6109                 2.4322
  Atom  AN      X      Y      Z        X      Y      Z        X      Y      Z
     1   6     0.03  -0.04   0.03    -0.06  -0.09   0.04    -0.02  -0.01   0.02
     2   6     0.06  -0.06   0.07    -0.12  -0.04   0.01    -0.05   0.00  -0.01
     3   6     0.05  -0.06   0.05    -0.13   0.01  -0.03    -0.06   0.01  -0.03
     4   6     0.00  -0.04  -0.01    -0.07   0.01  -0.02    -0.04  -0.00  -0.00
     5   6    -0.03  -0.02  -0.04    -0.01  -0.04   0.01    -0.01  -0.02   0.04
     6   6    -0.01  -0.02  -0.02    -0.01  -0.08   0.03    -0.00  -0.02   0.05
     7   6    -0.03  -0.01  -0.02     0.00  -0.10   0.00     0.00  -0.01   0.05
     8   8     0.02  -0.05   0.07     0.09  -0.04  -0.02    -0.07   0.01  -0.05
     9   8     0.06   0.09  -0.01     0.04  -0.06  -0.00    -0.01  -0.12  -0.02
    10  16     0.01  -0.00   0.01     0.05  -0.06  -0.01    -0.02  -0.03  -0.00
    11   7    -0.00  -0.05   0.02     0.04  -0.09  -0.02    -0.00  -0.01   0.04
    12   8    -0.07  -0.01  -0.08     0.04  -0.03   0.02     0.00  -0.02   0.05
    13   6    -0.03   0.01  -0.02     0.01   0.05   0.00     0.00   0.00   0.00
    14   6    -0.02   0.03   0.02    -0.08   0.02  -0.02    -0.03  -0.00   0.01
    15   6     0.01   0.02   0.05    -0.12  -0.02  -0.03    -0.04  -0.03   0.02
    16   6     0.01  -0.01   0.04    -0.05  -0.01  -0.01    -0.02  -0.04   0.02
    17   6    -0.00  -0.02  -0.00     0.04   0.02   0.02     0.01  -0.03   0.01
    18   8    -0.05  -0.01  -0.04     0.04   0.07  -0.02     0.01   0.00  -0.02
    19   6    -0.02  -0.01  -0.03     0.06   0.05   0.02     0.02  -0.01  -0.00
    20   6    -0.03  -0.02  -0.06     0.07   0.06   0.02     0.01  -0.02  -0.02
    21   8    -0.03  -0.04  -0.06     0.06   0.01   0.02     0.02  -0.03   0.01
    22   6    -0.03  -0.02  -0.05     0.01  -0.07  -0.01    -0.00  -0.01   0.03
    23   7    -0.03  -0.01  -0.05     0.00  -0.04  -0.02    -0.02  -0.01   0.01
    24   6    -0.04   0.01  -0.01     0.01   0.09  -0.01     0.02   0.02  -0.02
    25   7    -0.03  -0.02  -0.05     0.04   0.04   0.00    -0.01  -0.02  -0.02
    26   6    -0.05   0.01  -0.03     0.03   0.05   0.02     0.00   0.01  -0.01
    27   6    -0.01   0.00   0.00     0.02   0.09  -0.04    -0.00  -0.00  -0.00
    28  15    -0.05  -0.00  -0.03     0.03   0.10  -0.01     0.00   0.01  -0.01
    29   6    -0.06   0.02  -0.01    -0.00   0.08  -0.02    -0.08  -0.08  -0.09
    30   6     0.03   0.11   0.06    -0.03   0.05  -0.03    -0.04  -0.05  -0.08
    31   6     0.12   0.17   0.12    -0.04   0.05  -0.04     0.11   0.09  -0.01
    32   6     0.11   0.14   0.11    -0.02   0.07  -0.03     0.20   0.19   0.05
    33   6     0.03   0.07   0.05     0.01   0.09  -0.01     0.16   0.16   0.04
    34   6    -0.03  -0.00  -0.06     0.09   0.03   0.07    -0.01   0.02   0.01
    35   6     0.02  -0.03  -0.08     0.09  -0.03   0.11    -0.03   0.01   0.02
    36   6     0.06  -0.04  -0.09     0.01  -0.06   0.10    -0.02  -0.00   0.01
    37   6     0.03  -0.01  -0.06    -0.06  -0.03   0.05     0.00  -0.02  -0.01
    38   6    -0.03   0.01  -0.04    -0.04   0.03   0.01     0.01  -0.01  -0.02
    39   6    -0.00  -0.12   0.04    -0.04  -0.02  -0.00     0.03   0.09  -0.03
    40   6     0.02  -0.15   0.08    -0.10  -0.15   0.01     0.05   0.14  -0.04
    41   6     0.03  -0.03   0.09    -0.08  -0.14  -0.01     0.02   0.06  -0.01
    42   6     0.03   0.11   0.06    -0.01   0.01  -0.06    -0.03  -0.07   0.03
    43   6     0.00   0.12   0.01     0.04   0.12  -0.07    -0.04  -0.09   0.03
    44   1     0.05  -0.05   0.05    -0.06  -0.13   0.05    -0.02  -0.01   0.03
    45   1     0.10  -0.07   0.12    -0.16  -0.04   0.01    -0.06   0.01  -0.04
    46   1     0.07  -0.07   0.08    -0.18   0.05  -0.06    -0.08   0.02  -0.07
    47   1    -0.01  -0.04  -0.02    -0.08   0.05  -0.04    -0.05   0.00  -0.01
    48   1    -0.04   0.02  -0.01    -0.02  -0.12   0.00    -0.01  -0.01   0.05
    49   1     0.03  -0.05   0.07     0.05  -0.11  -0.04     0.00  -0.01   0.05
    50   1    -0.05   0.02  -0.05     0.03   0.08   0.00     0.01   0.02  -0.01
    51   1    -0.02   0.05   0.03    -0.12   0.02  -0.04    -0.04   0.01   0.01
    52   1     0.02   0.03   0.08    -0.19  -0.05  -0.06    -0.06  -0.03   0.02
    53   1     0.03  -0.02   0.06    -0.08  -0.04  -0.01    -0.03  -0.05   0.02
    54   1     0.00  -0.04  -0.01     0.07   0.02   0.03     0.02  -0.04   0.01
    55   1    -0.13  -0.04  -0.05    -0.00   0.07  -0.01    -0.19  -0.18  -0.14
    56   1     0.02   0.12   0.07    -0.04   0.04  -0.04    -0.11  -0.14  -0.13
    57   1     0.19   0.24   0.17    -0.06   0.03  -0.06     0.15   0.11  -0.01
    58   1     0.16   0.17   0.15    -0.03   0.06  -0.04     0.30   0.28   0.09
    59   1     0.05   0.06   0.05     0.02   0.11  -0.00     0.24   0.25   0.09
    60   1    -0.05  -0.01  -0.06     0.15   0.05   0.08    -0.02   0.03   0.01
    61   1     0.05  -0.04  -0.10     0.14  -0.06   0.15    -0.04   0.03   0.03
    62   1     0.11  -0.06  -0.11     0.01  -0.10   0.13    -0.02  -0.01   0.02
    63   1     0.05  -0.02  -0.07    -0.12  -0.05   0.04     0.01  -0.03  -0.02
    64   1    -0.05   0.02  -0.02    -0.09   0.05  -0.02     0.02  -0.02  -0.03
    65   1    -0.01  -0.20   0.03    -0.05  -0.02   0.02     0.05   0.13  -0.06
    66   1     0.02  -0.26   0.11    -0.15  -0.25   0.05     0.09   0.23  -0.07
    67   1     0.05  -0.05   0.13    -0.13  -0.25   0.00     0.04   0.10  -0.01
    68   1     0.04   0.21   0.07     0.00   0.03  -0.08    -0.05  -0.14   0.06
    69   1     0.00   0.22  -0.01     0.09   0.21  -0.10    -0.07  -0.18   0.06
                     16                     17                     18
                      A                      A                      A
 Frequencies --     94.4286               111.2391               137.3063
 Red. masses --      5.8559                 7.0811                 5.9465
 Frc consts  --      0.0308                 0.0516                 0.0661
 IR Inten    --      0.4791                 4.0101                 1.4261
  Atom  AN      X      Y      Z        X      Y      Z        X      Y      Z
     1   6    -0.03  -0.01   0.08    -0.10  -0.11   0.01    -0.15   0.06  -0.16
     2   6    -0.08   0.02   0.03    -0.10  -0.09   0.08    -0.10   0.03  -0.09
     3   6    -0.12   0.04  -0.03    -0.08  -0.04   0.08     0.05  -0.04   0.12
     4   6    -0.10   0.04  -0.02    -0.06  -0.01   0.01     0.08  -0.06   0.18
     5   6    -0.04   0.01   0.04    -0.06  -0.04  -0.05    -0.02  -0.01   0.04
     6   6    -0.01  -0.01   0.08    -0.08  -0.08  -0.06    -0.08   0.02  -0.05
     7   6    -0.02  -0.00   0.06    -0.08  -0.09  -0.12    -0.02   0.01   0.04
     8   8    -0.07   0.02  -0.00     0.12  -0.10   0.08    -0.07   0.01  -0.05
     9   8    -0.05  -0.06   0.02    -0.11   0.15   0.06     0.28  -0.10  -0.13
    10  16    -0.05  -0.01   0.03    -0.01  -0.01  -0.01     0.05  -0.04  -0.00
    11   7    -0.03   0.01   0.05    -0.06  -0.07  -0.15     0.04  -0.11   0.21
    12   8    -0.03   0.00   0.06    -0.04  -0.03  -0.07    -0.08   0.01  -0.03
    13   6    -0.02   0.06  -0.02    -0.04   0.07  -0.01    -0.02   0.06  -0.02
    14   6    -0.03   0.07   0.03    -0.01   0.07  -0.02    -0.03   0.06  -0.01
    15   6    -0.02   0.04   0.06     0.00   0.10  -0.03    -0.03   0.05  -0.01
    16   6    -0.00   0.00   0.05    -0.01   0.11  -0.03    -0.02   0.05  -0.00
    17   6     0.01  -0.01  -0.00    -0.04   0.11  -0.02    -0.01   0.05  -0.01
    18   8     0.06  -0.01  -0.08    -0.02   0.04   0.04    -0.04   0.04   0.01
    19   6     0.00   0.02  -0.03    -0.04   0.08  -0.00    -0.01   0.05  -0.01
    20   6     0.04   0.03  -0.03    -0.03   0.09   0.02    -0.02   0.04  -0.01
    21   8     0.04   0.04   0.01    -0.04   0.07  -0.03    -0.03  -0.01  -0.02
    22   6     0.00   0.03   0.02    -0.06  -0.03  -0.09    -0.04  -0.02  -0.02
    23   7    -0.03   0.03  -0.01    -0.02   0.02  -0.04    -0.03   0.05   0.00
    24   6     0.03  -0.00  -0.06     0.10  -0.02   0.04     0.04   0.01   0.00
    25   7     0.00   0.04  -0.05     0.01   0.11   0.04    -0.02   0.07   0.00
    26   6     0.02  -0.03  -0.08     0.10  -0.05   0.01     0.03  -0.02  -0.00
    27   6     0.09  -0.01  -0.05     0.04  -0.09   0.02     0.00  -0.04   0.01
    28  15     0.05  -0.01  -0.11     0.06  -0.04   0.02     0.01  -0.01  -0.00
    29   6     0.02   0.09  -0.03     0.03  -0.06   0.01     0.04   0.02   0.01
    30   6    -0.04   0.09   0.04    -0.01  -0.08   0.01     0.01   0.00   0.01
[...]
 Vibration    51          0.865              0.989              0.416
                       Q            Log10(Q)             Ln(Q)
 Total Bot       0.685674-248       -248.163882       -571.418456
 Total V=0       0.313207D+31         30.495831         70.219247
 Vib (Bot)       0.396603-264       -264.401644       -608.807283
 Vib (Bot)    1  0.123775D+02          1.092633          2.515881
 Vib (Bot)    2  0.103072D+02          1.013139          2.332839
 Vib (Bot)    3  0.986078D+01          0.993911          2.288565
 Vib (Bot)    4  0.701350D+01          0.845935          1.947837
 Vib (Bot)    5  0.677278D+01          0.830767          1.912911
 Vib (Bot)    6  0.550355D+01          0.740643          1.705394
 Vib (Bot)    7  0.457067D+01          0.659980          1.519661
 Vib (Bot)    8  0.390633D+01          0.591769          1.362599
 Vib (Bot)    9  0.353323D+01          0.548172          1.262212
 Vib (Bot)   10  0.318315D+01          0.502857          1.157871
 Vib (Bot)   11  0.261164D+01          0.416913          0.959978
 Vib (Bot)   12  0.247551D+01          0.393664          0.906445
 Vib (Bot)   13  0.213759D+01          0.329924          0.759679
 Vib (Bot)   14  0.197190D+01          0.294886          0.678999
 Vib (Bot)   15  0.191555D+01          0.282293          0.650005
 Vib (Bot)   16  0.161912D+01          0.209279          0.481883
 Vib (Bot)   17  0.130127D+01          0.114368          0.263343
 Vib (Bot)   18  0.122603D+01          0.088503          0.203785
 Vib (Bot)   19  0.104783D+01          0.020291          0.046722
 Vib (Bot)   20  0.978978D+00         -0.009227         -0.021246
 Vib (Bot)   21  0.793573D+00         -0.100413         -0.231210
 Vib (Bot)   22  0.755176D+00         -0.121952         -0.280804
 Vib (Bot)   23  0.734678D+00         -0.133903         -0.308323
 Vib (Bot)   24  0.675864D+00         -0.170141         -0.391763
 Vib (Bot)   25  0.672782D+00         -0.172125         -0.396333
 Vib (Bot)   26  0.636554D+00         -0.196165         -0.451686
 Vib (Bot)   27  0.632800D+00         -0.198733         -0.457600
 Vib (Bot)   28  0.612243D+00         -0.213076         -0.490626
 Vib (Bot)   29  0.578613D+00         -0.237612         -0.547121
 Vib (Bot)   30  0.550071D+00         -0.259581         -0.597707
 Vib (Bot)   31  0.470715D+00         -0.327242         -0.753502
 Vib (Bot)   32  0.465726D+00         -0.331870         -0.764158
 Vib (Bot)   33  0.438862D+00         -0.357672         -0.823570
 Vib (Bot)   34  0.432964D+00         -0.363548         -0.837100
 Vib (Bot)   35  0.389314D+00         -0.409701         -0.943370
 Vib (Bot)   36  0.364555D+00         -0.438237         -1.009077
 Vib (Bot)   37  0.363148D+00         -0.439916         -1.012944
 Vib (Bot)   38  0.361452D+00         -0.441949         -1.017626
 Vib (Bot)   39  0.355188D+00         -0.449542         -1.035108
 Vib (Bot)   40  0.351209D+00         -0.454434         -1.046374
 Vib (Bot)   41  0.345932D+00         -0.461010         -1.061514
 Vib (Bot)   42  0.315096D+00         -0.501557         -1.154878
 Vib (Bot)   43  0.305959D+00         -0.514337         -1.184305
 Vib (Bot)   44  0.304924D+00         -0.515808         -1.187692
 Vib (Bot)   45  0.280344D+00         -0.552309         -1.271739
 Vib (Bot)   46  0.274921D+00         -0.560792         -1.291271
 Vib (Bot)   47  0.271127D+00         -0.566828         -1.305169
 Vib (Bot)   48  0.251491D+00         -0.599477         -1.380348
 Vib (Bot)   49  0.243679D+00         -0.613182         -1.411904
 Vib (Bot)   50  0.238599D+00         -0.622331         -1.432971
 Vib (Bot)   51  0.235645D+00         -0.627742         -1.445430
 Vib (V=0)       0.181163D+15         14.258070         32.830420
 Vib (V=0)    1  0.128876D+02          1.110172          2.556266
 Vib (V=0)    2  0.108193D+02          1.034199          2.381330
 Vib (V=0)    3  0.103734D+02          1.015923          2.339249
 Vib (V=0)    4  0.753130D+01          0.876870          2.019067
 Vib (V=0)    5  0.729121D+01          0.862799          1.986669
 Vib (V=0)    6  0.602622D+01          0.780045          1.796120
 Vib (V=0)    7  0.509794D+01          0.707395          1.628837
 Vib (V=0)    8  0.443820D+01          0.647207          1.490249
 Vib (V=0)    9  0.406843D+01          0.609427          1.403257
 Vib (V=0)   10  0.372218D+01          0.570797          1.314309
 Vib (V=0)   11  0.315907D+01          0.499559          1.150278
 Vib (V=0)   12  0.302550D+01          0.480797          1.107076
 Vib (V=0)   13  0.269529D+01          0.430605          0.991505
 Vib (V=0)   14  0.253431D+01          0.403859          0.929920
 Vib (V=0)   15  0.247973D+01          0.394404          0.908150
 Vib (V=0)   16  0.219456D+01          0.341348          0.785984
 Vib (V=0)   17  0.189403D+01          0.277386          0.638705
 Vib (V=0)   18  0.182407D+01          0.261041          0.601070
 Vib (V=0)   19  0.166101D+01          0.220373          0.507427
 Vib (V=0)   20  0.159927D+01          0.203922          0.469548
 Vib (V=0)   21  0.143795D+01          0.157745          0.363221
 Vib (V=0)   22  0.140570D+01          0.147892          0.340535
 Vib (V=0)   23  0.138868D+01          0.142602          0.328354
 Vib (V=0)   24  0.134071D+01          0.127335          0.293199
 Vib (V=0)   25  0.133823D+01          0.126532          0.291351
 Vib (V=0)   26  0.130944D+01          0.117087          0.269603
 Vib (V=0)   27  0.130650D+01          0.116108          0.267349
 Vib (V=0)   28  0.129047D+01          0.110748          0.255006
 Vib (V=0)   29  0.126472D+01          0.101994          0.234849
 Vib (V=0)   30  0.124336D+01          0.094596          0.217814
 Vib (V=0)   31  0.118671D+01          0.074345          0.171186
 Vib (V=0)   32  0.118330D+01          0.073095          0.168308
 Vib (V=0)   33  0.116528D+01          0.066431          0.152963
 Vib (V=0)   34  0.116141D+01          0.064984          0.149631
 Vib (V=0)   35  0.113369D+01          0.054495          0.125479
 Vib (V=0)   36  0.111879D+01          0.048748          0.112247
 Vib (V=0)   37  0.111796D+01          0.048427          0.111507
 Vib (V=0)   38  0.111697D+01          0.048040          0.110616
 Vib (V=0)   39  0.111332D+01          0.046619          0.107345
 Vib (V=0)   40  0.111102D+01          0.045723          0.105280
 Vib (V=0)   41  0.110800D+01          0.044541          0.102560
 Vib (V=0)   42  0.109100D+01          0.037826          0.087098
 Vib (V=0)   43  0.108618D+01          0.035903          0.082670
 Vib (V=0)   44  0.108564D+01          0.035687          0.082173
 Vib (V=0)   45  0.107323D+01          0.030693          0.070673
 Vib (V=0)   46  0.107060D+01          0.029626          0.068217
 Vib (V=0)   47  0.106878D+01          0.028888          0.066517
 Vib (V=0)   48  0.105969D+01          0.025177          0.057972
 Vib (V=0)   49  0.105622D+01          0.023754          0.054695
 Vib (V=0)   50  0.105401D+01          0.022846          0.052604
 Vib (V=0)   51  0.105275D+01          0.022324          0.051402
 Electronic      0.100000D+01          0.000000          0.000000
 Translational   0.430330D+09          8.633801         19.880062
 Rotational      0.401754D+08          7.603960         17.508765
 ***** Axes restored to original set *****
 -------------------------------------------------------------------
 Center     Atomic                   Forces (Hartrees/Bohr)
 Number     Number              X              Y              Z
 -------------------------------------------------------------------
      1        6           0.000001259   -0.000001798   -0.000000990
      2        6           0.000001192   -0.000001655   -0.000001494
      3        6           0.000000991   -0.000002096   -0.000001717
      4        6           0.000000261   -0.000002167   -0.000001634
      5        6           0.000000022   -0.000001691   -0.000001945
      6        6           0.000000555   -0.000001359   -0.000000831
      7        6          -0.000000158   -0.000000229   -0.000002325
      8        8          -0.000001475   -0.000001491   -0.000000822
      9        8          -0.000000383   -0.000002743   -0.000000895
     10       16          -0.000002383   -0.000000247   -0.000001431
     11        7           0.000000856   -0.000000637   -0.000000734
     12        8          -0.000000451   -0.000001786   -0.000001470
     13        6           0.000002017   -0.000000260    0.000000053
     14        6           0.000001729    0.000000109   -0.000000189
     15        6           0.000002200    0.000000585    0.000000403
     16        6           0.000001645    0.000000973    0.000000362
     17        6           0.000000475    0.000000015   -0.000000225
     18        8           0.000001782    0.000000009    0.000001205
     19        6           0.000001418    0.000000176    0.000000402
     20        6          -0.000001624   -0.000000283   -0.000001174
     21        8          -0.000000112   -0.000000608   -0.000000647
     22        6           0.000000456   -0.000001826   -0.000000150
     23        7           0.000000661   -0.000000600   -0.000001794
     24        6          -0.000001843   -0.000000488   -0.000000311
     25        7          -0.000000030   -0.000000539   -0.000000454
     26        6          -0.000000236    0.000000995    0.000000408
     27        6          -0.000000343    0.000000559    0.000000306
     28       15           0.000000504    0.000002341    0.000003160
     29        6          -0.000000470    0.000000630    0.000001147
     30        6          -0.000001015   -0.000000198   -0.000000526
     31        6          -0.000001922   -0.000000754    0.000000345
     32        6          -0.000001631   -0.000001035   -0.000000031
     33        6          -0.000002453   -0.000000212   -0.000000396
     34        6          -0.000001280    0.000001176    0.000000997
     35        6          -0.000001592    0.000001399    0.000001264
     36        6          -0.000001397    0.000001710    0.000001277
     37        6          -0.000000705    0.000001425    0.000001356
     38        6          -0.000000612    0.000001228    0.000000981
     39        6           0.000000365    0.000000364    0.000000672
     40        6           0.000000730    0.000001037    0.000000777
     41        6           0.000000757    0.000001571    0.000001210
     42        6           0.000000509    0.000001693    0.000001322
     43        6           0.000000184    0.000001242    0.000001159
     44        1           0.000000986   -0.000001235   -0.000001126
     45        1           0.000001722   -0.000001747   -0.000001508
     46        1           0.000001310   -0.000002267   -0.000001899
     47        1           0.000000208   -0.000002291   -0.000001851
     48        1          -0.000000271   -0.000001268   -0.000000937
     49        1          -0.000001763   -0.000001118   -0.000000920
     50        1           0.000001071    0.000000064    0.000000028
     51        1           0.000001910    0.000000239    0.000000109
     52        1           0.000002659    0.000000611    0.000000427
     53        1           0.000002339    0.000000712    0.000000445
     54        1           0.000001704    0.000001433    0.000000640
     55        1          -0.000000639    0.000000396    0.000000351
     56        1          -0.000001501   -0.000000100   -0.000000049
     57        1          -0.000002136   -0.000000543   -0.000000377
     58        1          -0.000001607   -0.000001132   -0.000000456
     59        1          -0.000001079   -0.000000017   -0.000000048
     60        1          -0.000001414    0.000001040    0.000000451
     61        1          -0.000001928    0.000001622    0.000001410
     62        1          -0.000001639    0.000001812    0.000001564
     63        1          -0.000000757    0.000001468    0.000001228
     64        1          -0.000000384    0.000000956    0.000000566
     65        1           0.000000166    0.000000498    0.000000460
     66        1           0.000000917    0.000000938    0.000000715
     67        1           0.000001013    0.000001785    0.000001348
     68        1           0.000000585    0.000002072    0.000001631
     69        1           0.000000072    0.000001540    0.000001177
 -------------------------------------------------------------------
 Cartesian Forces:  Max     0.000003160 RMS     0.000001219
 FormGI is forming the generalized inverse of G from B-inverse, IUseBI=4.

 ----------------------------------------------------------------------

 Electric dipole moment (input orientation):
 (Debye = 10**-18 statcoulomb cm , SI units = C m)
                  (au)            (Debye)         (10**-30 SI)
   Tot        0.418092D+01      0.106268D+02      0.354473D+02
   x         -0.393923D+01     -0.100125D+02     -0.333981D+02
   y         -0.147868D+00     -0.375842D+00     -0.125367D+01
   z          0.139311D+01      0.354093D+01      0.118113D+02

 Dipole polarizability, Alpha (input orientation).
 (esu units = cm**3 , SI units = C**2 m**2 J**-1)
 Alpha(0;0):
               (au)            (10**-24 esu)      (10**-40 SI)
   iso        0.501830D+03      0.743636D+02      0.827406D+02
   aniso      0.107070D+03      0.158661D+02      0.176534D+02
   xx         0.493743D+03      0.731651D+02      0.814072D+02
   yx        -0.708380D+00     -0.104971D+00     -0.116796D+00
   yy         0.508763D+03      0.753909D+02      0.838837D+02
   zx        -0.605356D+02     -0.897045D+01     -0.998097D+01
   zy         0.994285D+01      0.147338D+01      0.163935D+01
   zz         0.502984D+03      0.745346D+02      0.829309D+02

 ----------------------------------------------------------------------

 Dipole orientation:
     6          2.84157677          3.19476773         -6.09535189
     6          3.20531664          5.28565679         -7.63739151
     6          1.66471587          5.64642106         -9.74339557
     6         -0.21832564          3.90776793        -10.30440011
     6         -0.54849107          1.83111992         -8.73508818
     6          0.94317181          1.43354197         -6.60154328
     6          0.63332045         -0.86281757         -4.90564299
     8         -4.90880255         -3.68999626         -8.65921895
     8         -0.27098683         -3.89264398         -9.62148407
    16         -2.39722045         -2.66708788         -8.40252206
     7         -1.86031472         -2.04612855         -5.38624174
     8         -2.53845874          0.21738504         -9.40018756
     6         -1.05226344          6.31807962          1.73025135
     6         -0.64823780          8.67966213          2.81010158
     6          1.19906794          8.98688387          4.66413698
     6          2.64780338          6.92579718          5.42301533
     6          2.25845305          4.56243024          4.33168402
     8         -2.47297009          0.75538673          2.60524863
     6          0.40331354          4.25374069          2.49066498
     6         -0.05706123          1.67543008          1.36472652
     8         -0.51700538          1.78824821         -1.23407861
     6          0.79451816         -0.24919749         -2.17099161
     7          2.08702982         -1.43167466         -0.50450777
     6         -1.59457677         -4.61337647          2.33130137
     7          1.72647070         -0.26500112          1.79625269
     6         -5.05888924         -2.14280983          5.53429804
     6          0.13576446         -1.62209239          6.96218080
    15         -1.89604871         -1.77636920          4.19612572
     6          0.14779838         -6.52189256          2.84219696
     6          0.22342615         -8.66243258          1.31462456
     6         -1.43000798         -8.90323582         -0.71703996
     6         -3.18744838         -7.00531098         -1.21622280
     6         -3.27135542         -4.85893808          0.30133946
     6         -5.78019071         -4.49969044          6.49421782
     6         -8.13956661         -4.81365377          7.60528424
     6         -9.80110956         -2.77674900          7.76528407
     6         -9.09610135         -0.42827675          6.81346615
     6         -6.73193608         -0.10552176          5.70312119
     6          2.73643105         -2.11121008          6.84209698
     6          4.19289489         -2.03939861          9.02501390
     6          3.09296840         -1.42093348         11.33630803
     6          0.52110693         -0.89257149         11.46361628
     6         -0.96073046         -1.01430438          9.29498556
     1          4.03010277          2.91714529         -4.44466391
     1          4.68407052          6.63411082         -7.19373508
     1          1.93065659          7.27738766        -10.95692354
     1         -1.43910569          4.12829800        -11.93538845
     1          2.15949316         -2.21441167         -5.28882477
     1         -2.10518276         -3.63651853         -4.32451720
     1         -2.49138998          6.07494976          0.28789824
     1         -1.77713717         10.28323905          2.20587976
     1          1.51080984         10.83139585          5.50796600
     1          4.09505327          7.15704666          6.85945735
     1          3.39216620          2.94569602          4.88445056
     1          1.44294278         -6.35633689          4.42179105
     1          1.58137250        -10.14504081          1.71811407
     1         -1.36465958        -10.57580244         -1.90198625
     1         -4.51225585         -7.20741817         -2.77214488
     1         -4.65114215         -3.38706404         -0.08379738
     1         -4.50411680         -6.10358064          6.36960586
     1         -8.68348758         -6.64994122          8.33944666
     1        -11.64619337         -3.02365769          8.62775071
     1        -10.38765678          1.16105081          6.92924443
     1         -6.18730352          1.72407405          4.96002243
     1          3.60525095         -2.46154418          5.02488173
     1          6.20142711         -2.43834395          8.91232542
     1          4.24328180         -1.34110548         13.03317022
     1         -0.34688926         -0.39476289         13.25348267
     1         -2.96637263         -0.62494131          9.43843560

 Electric dipole moment (dipole orientation):
 (Debye = 10**-18 statcoulomb cm , SI units = C m)
                  (au)            (Debye)         (10**-30 SI)
   Tot        0.418092D+01      0.106268D+02      0.354473D+02
   x          0.000000D+00      0.000000D+00      0.000000D+00
   y          0.000000D+00      0.000000D+00      0.000000D+00
   z          0.418092D+01      0.106268D+02      0.354473D+02

 Dipole polarizability, Alpha (dipole orientation).
 (esu units = cm**3 , SI units = C**2 m**2 J**-1)
 Alpha(0;0):
               (au)            (10**-24 esu)      (10**-40 SI)
   iso        0.501830D+03      0.743636D+02      0.827406D+02
   aniso      0.107070D+03      0.158661D+02      0.176534D+02
   xx         0.463383D+03      0.686663D+02      0.764015D+02
   yx         0.975661D+01      0.144578D+01      0.160865D+01
   yy         0.509592D+03      0.755137D+02      0.840203D+02
   zx         0.494910D+02      0.733381D+01      0.815996D+01
   zy         0.606319D+01      0.898472D+00      0.999685D+00
   zz         0.532516D+03      0.789107D+02      0.878000D+02

 ----------------------------------------------------------------------

 This type of calculation cannot be archived.


 GARBAGE IN, GARBAGE OUT
 Job cpu time:       0 days  0 hours  0 minutes  2.4 seconds.
 Elapsed time:       0 days  0 hours  0 minutes  0.6 seconds.
 File lengths (MBytes):  RWF=     10 Int=      0 D2E=      0 Chk=     12 Scr=      1
 Normal termination of Gaussian 16 at Sat Apr  4 18:13:14 2020.
