 Entering Gaussian System, Link 0=g16
 Input=cyclic_1_intr_2.gjf
 Output=cyclic_1_intr_2.log
 Initial command:
 /apps/cent7/gaussian/g16-A.03/g16-haswell/g16/l1.exe "/scratch/brown/finej/0051_imine_mechanism/ts_631gd/cyclic_complete_2/new_logs_2/Gau-61668.inp" -scrdir="/scratch/brown/finej/0051_imine_mechanism/ts_631gd/cyclic_complete_2/new_logs_2/"
 Entering Link 1 = /apps/cent7/gaussian/g16-A.03/g16-haswell/g16/l1.exe PID=     61669.
  
 Copyright (c) 1988,1990,1992,1993,1995,1998,2003,2009,2016,
            Gaussian, Inc.  All Rights Reserved.
  
 This is part of the Gaussian(R) 16 program.  It is based on
 the Gaussian(R) 09 system (copyright 2009, Gaussian, Inc.),
 the Gaussian(R) 03 system (copyright 2003, Gaussian, Inc.),
 the Gaussian(R) 98 system (copyright 1998, Gaussian, Inc.),
 the Gaussian(R) 94 system (copyright 1995, Gaussian, Inc.),
 the Gaussian 92(TM) system (copyright 1992, Gaussian, Inc.),
 the Gaussian 90(TM) system (copyright 1990, Gaussian, Inc.),
 the Gaussian 88(TM) system (copyright 1988, Gaussian, Inc.),
 the Gaussian 86(TM) system (copyright 1986, Carnegie Mellon
 University), and the Gaussian 82(TM) system (copyright 1983,
 Carnegie Mellon University). Gaussian is a federally registered
 trademark of Gaussian, Inc.
  
 This software contains proprietary and confidential information,
 including trade secrets, belonging to Gaussian, Inc.
  
 This software is provided under written license and may be
 used, copied, transmitted, or stored only in accord with that
 written license.
  
 The following legend is applicable only to US Government
 contracts under FAR:
  
                    RESTRICTED RIGHTS LEGEND
  
 Use, reproduction and disclosure by the US Government is
 subject to restrictions as set forth in subparagraphs (a)
 and (c) of the Commercial Computer Software - Restricted
 Rights clause in FAR 52.227-19.
  
 Gaussian, Inc.
 340 Quinnipiac St., Bldg. 40, Wallingford CT 06492
  
  
 ---------------------------------------------------------------
 Warning -- This program may not be used in any manner that
 competes with the business of Gaussian, Inc. or will provide
 assistance to any competitor of Gaussian, Inc.  The licensee
 of this program is prohibited from giving any competitor of
 Gaussian, Inc. access to this program.  By using this program,
 the user acknowledges that Gaussian, Inc. is engaged in the
 business of creating and licensing software in the field of
 computational chemistry and represents and warrants to the
 licensee that it is not a competitor of Gaussian, Inc. and that
 it will not use this program in any manner prohibited above.
 ---------------------------------------------------------------
  

 Cite this work as:
 Gaussian 16, Revision A.03,
 M. J. Frisch, G. W. Trucks, H. B. Schlegel, G. E. Scuseria, 
 M. A. Robb, J. R. Cheeseman, G. Scalmani, V. Barone, 
 G. A. Petersson, H. Nakatsuji, X. Li, M. Caricato, A. V. Marenich, 
 J. Bloino, B. G. Janesko, R. Gomperts, B. Mennucci, H. P. Hratchian, 
 J. V. Ortiz, A. F. Izmaylov, J. L. Sonnenberg, D. Williams-Young, 
 F. Ding, F. Lipparini, F. Egidi, J. Goings, B. Peng, A. Petrone, 
 T. Henderson, D. Ranasinghe, V. G. Zakrzewski, J. Gao, N. Rega, 
 G. Zheng, W. Liang, M. Hada, M. Ehara, K. Toyota, R. Fukuda, 
 J. Hasegawa, M. Ishida, T. Nakajima, Y. Honda, O. Kitao, H. Nakai, 
 T. Vreven, K. Throssell, J. A. Montgomery, Jr., J. E. Peralta, 
 F. Ogliaro, M. J. Bearpark, J. J. Heyd, E. N. Brothers, K. N. Kudin, 
 V. N. Staroverov, T. A. Keith, R. Kobayashi, J. Normand, 
 K. Raghavachari, A. P. Rendell, J. C. Burant, S. S. Iyengar, 
 J. Tomasi, M. Cossi, J. M. Millam, M. Klene, C. Adamo, R. Cammi, 
 J. W. Ochterski, R. L. Martin, K. Morokuma, O. Farkas, 
 J. B. Foresman, and D. J. Fox, Gaussian, Inc., Wallingford CT, 2016.
 
 ******************************************
 Gaussian 16:  ES64L-G16RevA.03 25-Dec-2016
                 4-Apr-2020 
 ******************************************
 %nprocshared=4
 Will use up to    4 processors via shared memory.
 %mem=1GB
 %oldchk=chk/cyclic_1_intr_2.chk
 Copying data from "chk/cyclic_1_intr_2.chk" to current chk file "/scratch/brown/finej/0051_imine_mechanism/ts_631gd/cyclic_complete_2/new_logs_2/Gau-61669.chk"
 IOpt=  2 FromEx=T IUOpen= 4 IOptOp= 5 NList=   0 IFRang= 0 IUIn= 4 IUOut= 2.
 ----------------------------------------------------------------------
 # freq=readfc wb97xd/6-31g(d) scrf=solvent=dichloromethane geom=check 
 temperature=263.15
 ----------------------------------------------------------------------
 1/29=2,38=1,112=263150,172=1/1;
 2/12=2,40=1/2;
 7/8=1,25=11/16;
 99/5=2/99;
 -----------------------------------
 PINC Interaction with Sulfonylimine
 -----------------------------------
 Structure from the checkpoint file:  "/scratch/brown/finej/0051_imine_mechanism/ts_631gd/cyclic_complete_2/new_logs_2/Gau-61669.chk"
 Charge =  0 Multiplicity = 1
 Redundant internal coordinates found in file.  (old form).
 C,0,-2.2677931596,1.5803116405,0.1308226119
 C,0,-2.2018733378,2.3159767504,1.3009625483
 C,0,-3.0801935788,2.0291955891,2.3502922935
 C,0,-4.0236785208,1.0135674107,2.2430760927
 C,0,-4.0678980511,0.2771973125,1.070076143
 C,0,-3.2012805795,0.5422163258,0.0051782383
 C,0,-3.2825305536,-0.2465407903,-1.2042412761
 O,0,-3.8903858052,-2.8775447965,0.6211581729
 O,0,-6.0906256758,-2.3789280451,-0.4624074597
 S,0,-4.7724974486,-1.9578178644,-0.0641756776
 N,0,-3.9778383803,-1.3238508091,-1.3687346828
 O,0,-5.048204251,-0.6836790401,0.9443465655
 C,0,-0.5032909322,0.951874877,-2.8808014423
 N,0,0.4022883393,0.3396620121,-2.4440912679
 C,0,2.5824715878,1.7678252024,-0.5436224326
 N,0,1.4284636888,-0.415968188,-2.0491773631
 C,0,0.9123321465,-0.2029920182,0.772670203
 C,0,3.4900551389,-1.0256216515,-0.3921128518
 P,0,2.0540686915,0.0366906236,-0.6124654101
 C,0,1.6215858273,2.7733860085,-0.3781063758
 C,0,1.9967438746,4.1108110371,-0.427280177
 C,0,3.3311399513,4.4513269072,-0.6392124418
 C,0,4.2905032041,3.4551947016,-0.8046273824
 C,0,3.9195524976,2.1150021301,-0.761803488
 C,0,-0.0948021438,-1.1616137348,0.6274907313
 C,0,-0.9774894453,-1.406047212,1.6745461604
 C,0,-0.8549783388,-0.6953712959,2.8654604613
 C,0,0.150111369,0.2580753242,3.0159482945
 C,0,1.0329662438,0.5089589563,1.9718999683
 C,0,3.9412791564,-1.3359130608,0.8942145124
 C,0,5.0797772768,-2.1177514225,1.0568883605
 C,0,5.7653966875,-2.5911030791,-0.0595921423
 C,0,5.3144240251,-2.2846252304,-1.3416626045
 C,0,4.1785942534,-1.5002496205,-1.5133921334
 H,0,-1.6072035384,1.7837628599,-0.7068401659
 H,0,-1.4745786846,3.1135586463,1.4054842775
 H,0,-3.0283114426,2.6054121705,3.2682514756
 H,0,-4.7139313765,0.7868919607,3.0473718492
 H,0,-2.701325655,0.0847821904,-2.0664946176
 H,0,0.5842425912,2.5123281826,-0.1949112299
 H,0,1.2483364426,4.8858607141,-0.2978761417
 H,0,3.6239311125,5.4960144841,-0.6736894387
 H,0,5.3302326864,3.7206156932,-0.9662109967
 H,0,4.6715153609,1.3430378415,-0.8938333728
 H,0,-0.1922895745,-1.7054108864,-0.3078296983
 H,0,-1.7690250146,-2.1380943997,1.5517685193
 H,0,-1.551404784,-0.8793195386,3.6774846646
 H,0,0.2410283181,0.813622774,3.9437936858
 H,0,1.8066607806,1.2619670156,2.0895717913
 H,0,3.4041537277,-0.9786789485,1.7677562661
 H,0,5.4273127915,-2.3613193377,2.0555515282
 H,0,6.6521962448,-3.2036320901,0.070070763
 H,0,5.8464621047,-2.6575427732,-2.2108297812
 H,0,3.8176311154,-1.2630219049,-2.508326373
 Recover connectivity data from disk.
                           ----------------------------
                           !    Current Parameters    !
                           ! (Angstroms and Degrees)  !
 --------------------------                            --------------------------
 ! Name  Definition              Value          Derivative Info.                !
 --------------------------------------------------------------------------------
 ! R1    R(1,2)                  1.3838         estimate D2E/DX2                !
 ! R2    R(1,6)                  1.4017         estimate D2E/DX2                !
 ! R3    R(1,35)                 1.086          estimate D2E/DX2                !
 ! R4    R(2,3)                  1.3981         estimate D2E/DX2                !
 ! R5    R(2,36)                 1.0844         estimate D2E/DX2                !
 ! R6    R(3,4)                  1.3904         estimate D2E/DX2                !
 ! R7    R(3,37)                 1.0851         estimate D2E/DX2                !
 ! R8    R(4,5)                  1.3857         estimate D2E/DX2                !
 ! R9    R(4,38)                 1.0838         estimate D2E/DX2                !
 ! R10   R(5,6)                  1.3983         estimate D2E/DX2                !
 ! R11   R(5,12)                 1.3784         estimate D2E/DX2                !
 ! R12   R(6,7)                  1.4462         estimate D2E/DX2                !
 ! R13   R(7,11)                 1.2927         estimate D2E/DX2                !
 ! R14   R(7,39)                 1.0914         estimate D2E/DX2                !
 ! R15   R(8,10)                 1.447          estimate D2E/DX2                !
 ! R16   R(8,45)                 3.9891         estimate D2E/DX2                !
 ! R17   R(9,10)                 1.4399         estimate D2E/DX2                !
 ! R18   R(10,11)                1.6539         estimate D2E/DX2                !
 ! R19   R(10,12)                1.6482         estimate D2E/DX2                !
 ! R20   R(13,14)                1.1771         estimate D2E/DX2                !
 ! R21   R(14,16)                1.3342         estimate D2E/DX2                !
 ! R22   R(15,19)                1.8113         estimate D2E/DX2                !
 ! R23   R(15,20)                1.4007         estimate D2E/DX2                !
 ! R24   R(15,24)                1.3985         estimate D2E/DX2                !
 ! R25   R(16,19)                1.6311         estimate D2E/DX2                !
 ! R26   R(17,19)                1.811          estimate D2E/DX2                !
 ! R27   R(17,25)                1.398          estimate D2E/DX2                !
 ! R28   R(17,29)                1.3998         estimate D2E/DX2                !
 ! R29   R(18,19)                1.7998         estimate D2E/DX2                !
 ! R30   R(18,30)                1.398          estimate D2E/DX2                !
 ! R31   R(18,34)                1.3988         estimate D2E/DX2                !
 ! R32   R(20,21)                1.3899         estimate D2E/DX2                !
 ! R33   R(20,40)                1.0853         estimate D2E/DX2                !
 ! R34   R(21,22)                1.3934         estimate D2E/DX2                !
 ! R35   R(21,41)                1.0852         estimate D2E/DX2                !
 ! R36   R(22,23)                1.3928         estimate D2E/DX2                !
 ! R37   R(22,42)                1.0855         estimate D2E/DX2                !
 ! R38   R(23,24)                1.3912         estimate D2E/DX2                !
 ! R39   R(23,43)                1.0852         estimate D2E/DX2                !
 ! R40   R(24,44)                1.0857         estimate D2E/DX2                !
 ! R41   R(25,26)                1.3911         estimate D2E/DX2                !
 ! R42   R(25,45)                1.0863         estimate D2E/DX2                !
 ! R43   R(26,27)                1.3922         estimate D2E/DX2                !
 ! R44   R(26,46)                1.0851         estimate D2E/DX2                !
 ! R45   R(27,28)                1.3935         estimate D2E/DX2                !
 ! R46   R(27,47)                1.0855         estimate D2E/DX2                !
 ! R47   R(28,29)                1.3901         estimate D2E/DX2                !
 ! R48   R(28,48)                1.0853         estimate D2E/DX2                !
 ! R49   R(29,49)                1.086          estimate D2E/DX2                !
 ! R50   R(30,31)                1.3907         estimate D2E/DX2                !
 ! R51   R(30,50)                1.0859         estimate D2E/DX2                !
 ! R52   R(31,32)                1.3931         estimate D2E/DX2                !
 ! R53   R(31,51)                1.0851         estimate D2E/DX2                !
 ! R54   R(32,33)                1.3932         estimate D2E/DX2                !
 ! R55   R(32,52)                1.0855         estimate D2E/DX2                !
 ! R56   R(33,34)                1.391          estimate D2E/DX2                !
 ! R57   R(33,53)                1.0852         estimate D2E/DX2                !
 ! R58   R(34,54)                1.0846         estimate D2E/DX2                !
 ! A1    A(2,1,6)              120.0828         estimate D2E/DX2                !
 ! A2    A(2,1,35)             121.5787         estimate D2E/DX2                !
 ! A3    A(6,1,35)             118.3384         estimate D2E/DX2                !
 ! A4    A(1,2,3)              119.7149         estimate D2E/DX2                !
 ! A5    A(1,2,36)             120.2958         estimate D2E/DX2                !
 ! A6    A(3,2,36)             119.9892         estimate D2E/DX2                !
 ! A7    A(2,3,4)              121.2147         estimate D2E/DX2                !
 ! A8    A(2,3,37)             119.7339         estimate D2E/DX2                !
 ! A9    A(4,3,37)             119.0513         estimate D2E/DX2                !
 ! A10   A(3,4,5)              118.3666         estimate D2E/DX2                !
 ! A11   A(3,4,38)             121.8504         estimate D2E/DX2                !
 ! A12   A(5,4,38)             119.7828         estimate D2E/DX2                !
 ! A13   A(4,5,6)              121.6128         estimate D2E/DX2                !
 ! A14   A(4,5,12)             118.0564         estimate D2E/DX2                !
 ! A15   A(6,5,12)             120.2258         estimate D2E/DX2                !
 ! A16   A(1,6,5)              119.0015         estimate D2E/DX2                !
 ! A17   A(1,6,7)              121.0842         estimate D2E/DX2                !
 ! A18   A(5,6,7)              119.9136         estimate D2E/DX2                !
 ! A19   A(6,7,11)             126.2394         estimate D2E/DX2                !
 ! A20   A(6,7,39)             117.7251         estimate D2E/DX2                !
 ! A21   A(11,7,39)            116.0344         estimate D2E/DX2                !
 ! A22   A(10,8,45)            105.5506         estimate D2E/DX2                !
 ! A23   A(8,10,9)             120.2096         estimate D2E/DX2                !
 ! A24   A(8,10,11)            108.9252         estimate D2E/DX2                !
 ! A25   A(8,10,12)            107.6699         estimate D2E/DX2                !
 ! A26   A(9,10,11)            109.4993         estimate D2E/DX2                !
 ! A27   A(9,10,12)            104.0152         estimate D2E/DX2                !
 ! A28   A(11,10,12)           105.4682         estimate D2E/DX2                !
 ! A29   A(7,11,10)            118.5234         estimate D2E/DX2                !
 ! A30   A(5,12,10)            118.4064         estimate D2E/DX2                !
 ! A31   A(19,15,20)           119.374          estimate D2E/DX2                !
 ! A32   A(19,15,24)           120.6794         estimate D2E/DX2                !
 ! A33   A(20,15,24)           119.7418         estimate D2E/DX2                !
 ! A34   A(14,16,19)           113.4883         estimate D2E/DX2                !
 ! A35   A(19,17,25)           117.7438         estimate D2E/DX2                !
 ! A36   A(19,17,29)           122.249          estimate D2E/DX2                !
 ! A37   A(25,17,29)           119.9868         estimate D2E/DX2                !
 ! A38   A(19,18,30)           120.0778         estimate D2E/DX2                !
 ! A39   A(19,18,34)           119.662          estimate D2E/DX2                !
 ! A40   A(30,18,34)           120.2231         estimate D2E/DX2                !
 ! A41   A(15,19,16)           114.2432         estimate D2E/DX2                !
 ! A42   A(15,19,17)           106.3404         estimate D2E/DX2                !
 ! A43   A(15,19,18)           109.0696         estimate D2E/DX2                !
 ! A44   A(16,19,17)           113.2766         estimate D2E/DX2                !
 ! A45   A(16,19,18)           104.4814         estimate D2E/DX2                !
 ! A46   A(17,19,18)           109.3454         estimate D2E/DX2                !
 ! A47   A(15,20,21)           120.0965         estimate D2E/DX2                !
 ! A48   A(15,20,40)           120.1978         estimate D2E/DX2                !
 ! A49   A(21,20,40)           119.6983         estimate D2E/DX2                !
 ! A50   A(20,21,22)           119.9355         estimate D2E/DX2                !
 ! A51   A(20,21,41)           119.794          estimate D2E/DX2                !
 ! A52   A(22,21,41)           120.2703         estimate D2E/DX2                !
 ! A53   A(21,22,23)           120.1929         estimate D2E/DX2                !
 ! A54   A(21,22,42)           119.8905         estimate D2E/DX2                !
 ! A55   A(23,22,42)           119.9165         estimate D2E/DX2                !
 ! A56   A(22,23,24)           120.1078         estimate D2E/DX2                !
 ! A57   A(22,23,43)           120.1785         estimate D2E/DX2                !
 ! A58   A(24,23,43)           119.7136         estimate D2E/DX2                !
 ! A59   A(15,24,23)           119.924          estimate D2E/DX2                !
 ! A60   A(15,24,44)           120.3061         estimate D2E/DX2                !
 ! A61   A(23,24,44)           119.7694         estimate D2E/DX2                !
 ! A62   A(17,25,26)           119.9631         estimate D2E/DX2                !
 ! A63   A(17,25,45)           119.824          estimate D2E/DX2                !
 ! A64   A(26,25,45)           120.2093         estimate D2E/DX2                !
 ! A65   A(25,26,27)           119.8878         estimate D2E/DX2                !
 ! A66   A(25,26,46)           119.7501         estimate D2E/DX2                !
 ! A67   A(27,26,46)           120.3535         estimate D2E/DX2                !
 ! A68   A(26,27,28)           120.3375         estimate D2E/DX2                !
 ! A69   A(26,27,47)           119.7983         estimate D2E/DX2                !
 ! A70   A(28,27,47)           119.8621         estimate D2E/DX2                !
 ! A71   A(27,28,29)           120.0293         estimate D2E/DX2                !
 ! A72   A(27,28,48)           120.1981         estimate D2E/DX2                !
 ! A73   A(29,28,48)           119.7701         estimate D2E/DX2                !
 ! A74   A(17,29,28)           119.7949         estimate D2E/DX2                !
 ! A75   A(17,29,49)           120.4541         estimate D2E/DX2                !
 ! A76   A(28,29,49)           119.7491         estimate D2E/DX2                !
 ! A77   A(18,30,31)           119.7781         estimate D2E/DX2                !
 ! A78   A(18,30,50)           120.4971         estimate D2E/DX2                !
 ! A79   A(31,30,50)           119.7224         estimate D2E/DX2                !
 ! A80   A(30,31,32)           120.0135         estimate D2E/DX2                !
 ! A81   A(30,31,51)           119.7399         estimate D2E/DX2                !
 ! A82   A(32,31,51)           120.2457         estimate D2E/DX2                !
 ! A83   A(31,32,33)           120.2294         estimate D2E/DX2                !
 ! A84   A(31,32,52)           119.8713         estimate D2E/DX2                !
 ! A85   A(33,32,52)           119.8991         estimate D2E/DX2                !
 ! A86   A(32,33,34)           120.1308         estimate D2E/DX2                !
 ! A87   A(32,33,53)           120.1831         estimate D2E/DX2                !
 ! A88   A(34,33,53)           119.686          estimate D2E/DX2                !
 ! A89   A(18,34,33)           119.6247         estimate D2E/DX2                !
 ! A90   A(18,34,54)           119.8199         estimate D2E/DX2                !
 ! A91   A(33,34,54)           120.5523         estimate D2E/DX2                !
 ! A92   A(8,45,25)             91.7062         estimate D2E/DX2                !
 ! A93   L(13,14,16,3,-1)      184.2986         estimate D2E/DX2                !
 ! A94   L(13,14,16,3,-2)      177.1953         estimate D2E/DX2                !
 ! D1    D(6,1,2,3)             -0.7322         estimate D2E/DX2                !
 ! D2    D(6,1,2,36)           179.4073         estimate D2E/DX2                !
 ! D3    D(35,1,2,3)           179.3746         estimate D2E/DX2                !
 ! D4    D(35,1,2,36)           -0.4859         estimate D2E/DX2                !
 ! D5    D(2,1,6,5)              0.7502         estimate D2E/DX2                !
 ! D6    D(2,1,6,7)           -179.5573         estimate D2E/DX2                !
 ! D7    D(35,1,6,5)          -179.3532         estimate D2E/DX2                !
 ! D8    D(35,1,6,7)             0.3394         estimate D2E/DX2                !
 ! D9    D(1,2,3,4)              0.054          estimate D2E/DX2                !
 ! D10   D(1,2,3,37)           179.9574         estimate D2E/DX2                !
 ! D11   D(36,2,3,4)           179.915          estimate D2E/DX2                !
 ! D12   D(36,2,3,37)           -0.1817         estimate D2E/DX2                !
 ! D13   D(2,3,4,5)              0.5906         estimate D2E/DX2                !
 ! D14   D(2,3,4,38)          -179.5794         estimate D2E/DX2                !
 ! D15   D(37,3,4,5)          -179.3134         estimate D2E/DX2                !
 ! D16   D(37,3,4,38)            0.5166         estimate D2E/DX2                !
 ! D17   D(3,4,5,6)             -0.5691         estimate D2E/DX2                !
 ! D18   D(3,4,5,12)          -176.8499         estimate D2E/DX2                !
 ! D19   D(38,4,5,6)           179.5973         estimate D2E/DX2                !
 ! D20   D(38,4,5,12)            3.3165         estimate D2E/DX2                !
 ! D21   D(4,5,6,1)             -0.092          estimate D2E/DX2                !
 ! D22   D(4,5,6,7)           -179.7883         estimate D2E/DX2                !
 ! D23   D(12,5,6,1)           176.1093         estimate D2E/DX2                !
 ! D24   D(12,5,6,7)            -3.5869         estimate D2E/DX2                !
 ! D25   D(4,5,12,10)         -154.3426         estimate D2E/DX2                !
 ! D26   D(6,5,12,10)           29.323          estimate D2E/DX2                !
 ! D27   D(1,6,7,11)           170.6533         estimate D2E/DX2                !
 ! D28   D(1,6,7,39)            -8.9432         estimate D2E/DX2                !
 ! D29   D(5,6,7,11)            -9.6569         estimate D2E/DX2                !
 ! D30   D(5,6,7,39)           170.7466         estimate D2E/DX2                !
 ! D31   D(6,7,11,10)           -5.0701         estimate D2E/DX2                !
 ! D32   D(39,7,11,10)         174.5325         estimate D2E/DX2                !
 ! D33   D(45,8,10,9)          152.0245         estimate D2E/DX2                !
 ! D34   D(45,8,10,11)          24.5827         estimate D2E/DX2                !
 ! D35   D(45,8,10,12)         -89.3166         estimate D2E/DX2                !
 ! D36   D(10,8,45,25)          98.1397         estimate D2E/DX2                !
 ! D37   D(8,10,11,7)          -89.0809         estimate D2E/DX2                !
 ! D38   D(9,10,11,7)          137.6289         estimate D2E/DX2                !
 ! D39   D(12,10,11,7)          26.2483         estimate D2E/DX2                !
 ! D40   D(8,10,12,5)           77.7329         estimate D2E/DX2                !
 ! D41   D(9,10,12,5)         -153.6732         estimate D2E/DX2                !
 ! D42   D(11,10,12,5)         -38.4566         estimate D2E/DX2                !
 ! D43   D(20,15,19,16)         78.2944         estimate D2E/DX2                !
 ! D44   D(20,15,19,17)        -47.4142         estimate D2E/DX2                !
 ! D45   D(20,15,19,18)       -165.2281         estimate D2E/DX2                !
 ! D46   D(24,15,19,16)        -96.4922         estimate D2E/DX2                !
 ! D47   D(24,15,19,17)        137.7992         estimate D2E/DX2                !
 ! D48   D(24,15,19,18)         19.9854         estimate D2E/DX2                !
 ! D49   D(19,15,20,21)       -174.9972         estimate D2E/DX2                !
 ! D50   D(19,15,20,40)          5.9996         estimate D2E/DX2                !
 ! D51   D(24,15,20,21)         -0.1611         estimate D2E/DX2                !
 ! D52   D(24,15,20,40)       -179.1642         estimate D2E/DX2                !
 ! D53   D(19,15,24,23)        175.1924         estimate D2E/DX2                !
 ! D54   D(19,15,24,44)         -5.0754         estimate D2E/DX2                !
 ! D55   D(20,15,24,23)          0.4249         estimate D2E/DX2                !
 ! D56   D(20,15,24,44)       -179.8429         estimate D2E/DX2                !
 ! D57   D(14,16,19,15)        -55.8596         estimate D2E/DX2                !
 ! D58   D(14,16,19,17)         66.12           estimate D2E/DX2                !
 ! D59   D(14,16,19,18)       -174.9624         estimate D2E/DX2                !
 ! D60   D(25,17,19,15)        150.4086         estimate D2E/DX2                !
 ! D61   D(25,17,19,16)         24.1143         estimate D2E/DX2                !
 ! D62   D(25,17,19,18)        -91.9604         estimate D2E/DX2                !
 ! D63   D(29,17,19,15)        -31.2385         estimate D2E/DX2                !
 ! D64   D(29,17,19,16)       -157.5327         estimate D2E/DX2                !
 ! D65   D(29,17,19,18)         86.3925         estimate D2E/DX2                !
 ! D66   D(19,17,25,26)        178.4725         estimate D2E/DX2                !
 ! D67   D(19,17,25,45)         -2.2259         estimate D2E/DX2                !
 ! D68   D(29,17,25,26)          0.0808         estimate D2E/DX2                !
 ! D69   D(29,17,25,45)        179.3824         estimate D2E/DX2                !
 ! D70   D(19,17,29,28)       -178.2381         estimate D2E/DX2                !
 ! D71   D(19,17,29,49)          2.2623         estimate D2E/DX2                !
 ! D72   D(25,17,29,28)          0.0788         estimate D2E/DX2                !
 ! D73   D(25,17,29,49)       -179.4208         estimate D2E/DX2                !
 ! D74   D(30,18,19,15)         84.3342         estimate D2E/DX2                !
 ! D75   D(30,18,19,16)       -153.1189         estimate D2E/DX2                !
 ! D76   D(30,18,19,17)        -31.5694         estimate D2E/DX2                !
 ! D77   D(34,18,19,15)        -93.4539         estimate D2E/DX2                !
 ! D78   D(34,18,19,16)         29.0929         estimate D2E/DX2                !
 ! D79   D(34,18,19,17)        150.6425         estimate D2E/DX2                !
 ! D80   D(19,18,30,31)       -177.6892         estimate D2E/DX2                !
 ! D81   D(19,18,30,50)          2.881          estimate D2E/DX2                !
 ! D82   D(34,18,30,31)          0.0864         estimate D2E/DX2                !
 ! D83   D(34,18,30,50)       -179.3434         estimate D2E/DX2                !
 ! D84   D(19,18,34,33)        177.8695         estimate D2E/DX2                !
 ! D85   D(19,18,34,54)         -2.7671         estimate D2E/DX2                !
 ! D86   D(30,18,34,33)          0.0846         estimate D2E/DX2                !
 ! D87   D(30,18,34,54)        179.4481         estimate D2E/DX2                !
 ! D88   D(15,20,21,22)         -0.113          estimate D2E/DX2                !
 ! D89   D(15,20,21,41)       -179.9663         estimate D2E/DX2                !
 ! D90   D(40,20,21,22)        178.8952         estimate D2E/DX2                !
 ! D91   D(40,20,21,41)         -0.9582         estimate D2E/DX2                !
 ! D92   D(20,21,22,23)          0.1242         estimate D2E/DX2                !
 ! D93   D(20,21,22,42)       -179.766          estimate D2E/DX2                !
 ! D94   D(41,21,22,23)        179.9768         estimate D2E/DX2                !
 ! D95   D(41,21,22,42)          0.0867         estimate D2E/DX2                !
 ! D96   D(21,22,23,24)          0.1408         estimate D2E/DX2                !
 ! D97   D(21,22,23,43)       -179.7861         estimate D2E/DX2                !
 ! D98   D(42,22,23,24)       -179.969          estimate D2E/DX2                !
 ! D99   D(42,22,23,43)          0.1041         estimate D2E/DX2                !
 ! D100  D(22,23,24,15)         -0.4154         estimate D2E/DX2                !
 ! D101  D(22,23,24,44)        179.8509         estimate D2E/DX2                !
 ! D102  D(43,23,24,15)        179.5119         estimate D2E/DX2                !
 ! D103  D(43,23,24,44)         -0.2218         estimate D2E/DX2                !
 ! D104  D(17,25,26,27)         -0.038          estimate D2E/DX2                !
 ! D105  D(17,25,26,46)        178.9001         estimate D2E/DX2                !
 ! D106  D(45,25,26,27)       -179.3369         estimate D2E/DX2                !
 ! D107  D(45,25,26,46)         -0.3987         estimate D2E/DX2                !
 ! D108  D(17,25,45,8)        -163.2462         estimate D2E/DX2                !
 ! D109  D(26,25,45,8)          16.0536         estimate D2E/DX2                !
 ! D110  D(25,26,27,28)         -0.1648         estimate D2E/DX2                !
 ! D111  D(25,26,27,47)        179.3147         estimate D2E/DX2                !
 ! D112  D(46,26,27,28)       -179.0964         estimate D2E/DX2                !
 ! D113  D(46,26,27,47)          0.383          estimate D2E/DX2                !
 ! D114  D(26,27,28,29)          0.3253         estimate D2E/DX2                !
 ! D115  D(26,27,28,48)        179.7501         estimate D2E/DX2                !
 ! D116  D(47,27,28,29)       -179.1538         estimate D2E/DX2                !
 ! D117  D(47,27,28,48)          0.271          estimate D2E/DX2                !
 ! D118  D(27,28,29,17)         -0.2808         estimate D2E/DX2                !
 ! D119  D(27,28,29,49)        179.2223         estimate D2E/DX2                !
 ! D120  D(48,28,29,17)       -179.7081         estimate D2E/DX2                !
 ! D121  D(48,28,29,49)         -0.2049         estimate D2E/DX2                !
 ! D122  D(18,30,31,32)         -0.1151         estimate D2E/DX2                !
 ! D123  D(18,30,31,51)       -179.7706         estimate D2E/DX2                !
 ! D124  D(50,30,31,32)        179.3192         estimate D2E/DX2                !
 ! D125  D(50,30,31,51)         -0.3363         estimate D2E/DX2                !
 ! D126  D(30,31,32,33)         -0.0272         estimate D2E/DX2                !
 ! D127  D(30,31,32,52)       -179.8221         estimate D2E/DX2                !
 ! D128  D(51,31,32,33)        179.6265         estimate D2E/DX2                !
 ! D129  D(51,31,32,52)         -0.1684         estimate D2E/DX2                !
 ! D130  D(31,32,33,34)          0.1996         estimate D2E/DX2                !
 ! D131  D(31,32,33,53)       -179.7184         estimate D2E/DX2                !
 ! D132  D(52,32,33,34)        179.9945         estimate D2E/DX2                !
 ! D133  D(52,32,33,53)          0.0765         estimate D2E/DX2                !
 ! D134  D(32,33,34,18)         -0.2271         estimate D2E/DX2                !
 ! D135  D(32,33,34,54)       -179.5858         estimate D2E/DX2                !
 ! D136  D(53,33,34,18)        179.6913         estimate D2E/DX2                !
 ! D137  D(53,33,34,54)          0.3326         estimate D2E/DX2                !
 --------------------------------------------------------------------------------
 Stoichiometry    C26H20N3O3PS
 Framework group  C1[X(C26H20N3O3PS)]
 Deg. of freedom   156
 Full point group                 C1      NOp   1
 Largest Abelian subgroup         C1      NOp   1
 Largest concise Abelian subgroup C1      NOp   1
                         Standard orientation:                         
 ---------------------------------------------------------------------
 Center     Atomic      Atomic             Coordinates (Angstroms)
 Number     Number       Type             X           Y           Z
 ---------------------------------------------------------------------
      1          6           0       -1.955092    1.828116   -0.308752
      2          6           0       -1.922940    2.622958    0.823489
      3          6           0       -2.946814    2.522264    1.770233
      4          6           0       -4.002715    1.634255    1.597974
      5          6           0       -4.013287    0.835688    0.465585
      6          6           0       -3.002142    0.915379   -0.496965
      7          6           0       -3.052191    0.067483   -1.667436
      8          8           0       -4.222021   -2.337488    0.195725
      9          8           0       -6.193725   -1.625983   -1.171729
     10         16           0       -4.884541   -1.356377   -0.636254
     11          7           0       -3.865872   -0.917777   -1.863126
     12          8           0       -5.095745    0.005470    0.267807
     13          6           0        0.039345    0.780307   -3.047839
     14          7           0        0.795830    0.084245   -2.474409
     15          6           0        2.919753    1.334316   -0.393327
     16          7           0        1.655980   -0.772204   -1.920689
     17          6           0        0.854181   -0.311281    0.803140
     18          6           0        3.410255   -1.538273    0.003722
     19         15           0        2.169197   -0.313432   -0.441987
     20          6           0        2.094058    2.465719   -0.395665
     21          6           0        2.653112    3.736432   -0.463586
     22          6           0        4.037116    3.884696   -0.527058
     23          6           0        4.862602    2.762827   -0.525265
     24          6           0        4.308033    1.488414   -0.462990
     25          6           0       -0.252131   -1.137010    0.582691
     26          6           0       -1.274204   -1.195386    1.524587
     27          6           0       -1.192202   -0.431338    2.685558
     28          6           0       -0.089224    0.389884    2.911271
     29          6           0        0.933558    0.454813    1.972062
     30          6           0        3.663992   -1.821134    1.349133
     31          6           0        4.657648   -2.733258    1.687643
     32          6           0        5.394869   -3.363625    0.687740
     33          6           0        5.140367   -3.084294   -0.653235
     34          6           0        4.150723   -2.170596   -1.000519
     35          1           0       -1.181164    1.888606   -1.068243
     36          1           0       -1.109473    3.323421    0.977246
     37          1           0       -2.921550    3.144891    2.658526
     38          1           0       -4.805203    1.552520    2.321890
     39          1           0       -2.335920    0.263284   -2.467231
     40          1           0        1.016540    2.355269   -0.328219
     41          1           0        2.008821    4.609615   -0.464526
     42          1           0        4.473105    4.877562   -0.576244
     43          1           0        5.940592    2.878679   -0.571208
     44          1           0        4.956548    0.617647   -0.464368
     45          1           0       -0.315803   -1.722713   -0.329966
     46          1           0       -2.139747   -1.823780    1.341689
     47          1           0       -1.995760   -0.469496    3.414302
     48          1           0       -0.029539    0.987588    3.815142
     49          1           0        1.785024    1.105950    2.146697
     50          1           0        3.084696   -1.340819    2.132017
     51          1           0        4.851538   -2.955137    2.731966
     52          1           0        6.168022   -4.077407    0.954512
     53          1           0        5.711994   -3.579174   -1.431642
     54          1           0        3.942322   -1.952988   -2.042480
 ---------------------------------------------------------------------
 Rotational constants (GHZ):           0.1963921           0.0735899           0.0661334
 Electric field and nuclear coordinate derivatives read from checkpoint file.
 Rotating derivatives to standard orientation.
 Full mass-weighted force constant matrix:
 Low frequencies ---   -7.0983   -0.0161   -0.0006    0.0151    4.6997    7.0460
 Low frequencies ---    9.6146   18.6796   24.2141
 Diagonal vibrational polarizability:
      221.3842431     122.1623972     134.2427284
 Harmonic frequencies (cm**-1), IR intensities (KM/Mole), Raman scattering
 activities (A**4/AMU), depolarization ratios for plane and unpolarized
 incident light, reduced masses (AMU), force constants (mDyne/A),
 and normal coordinates:
                      1                      2                      3
                      A                      A                      A
 Frequencies --      9.3753                18.6311                24.0712
 Red. masses --      7.2893                 5.4008                 4.2283
 Frc consts  --      0.0004                 0.0011                 0.0014
 IR Inten    --      0.3269                 0.2453                 0.0415
  Atom  AN      X      Y      Z        X      Y      Z        X      Y      Z
     1   6    -0.02   0.03  -0.01     0.04  -0.01  -0.00     0.02  -0.00  -0.03
     2   6    -0.03  -0.01   0.02     0.07  -0.06   0.03     0.05  -0.02  -0.02
     3   6    -0.02  -0.08   0.03     0.09  -0.07   0.05     0.07  -0.02  -0.00
     4   6     0.00  -0.10   0.01     0.07  -0.04   0.03     0.06  -0.01   0.01
     5   6     0.01  -0.06  -0.02     0.03   0.00  -0.00     0.03   0.01  -0.00
     6   6    -0.00   0.01  -0.03     0.01   0.02  -0.02     0.01   0.01  -0.02
     7   6     0.01   0.05  -0.06    -0.03   0.07  -0.05    -0.02   0.03  -0.03
     8   8     0.17  -0.04  -0.11    -0.01   0.03  -0.11     0.01   0.02  -0.04
     9   8     0.09  -0.12  -0.05    -0.04   0.09  -0.04    -0.02   0.04   0.01
    10  16     0.09  -0.06  -0.07    -0.03   0.06  -0.07    -0.01   0.03  -0.01
    11   7     0.04   0.03  -0.09    -0.05   0.09  -0.08    -0.04   0.04  -0.03
    12   8     0.04  -0.09  -0.04     0.01   0.03  -0.02     0.02   0.02   0.01
    13   6    -0.00   0.11   0.02    -0.00  -0.07   0.01     0.00  -0.05  -0.00
    14   7    -0.06   0.07   0.04    -0.01  -0.06   0.02    -0.00  -0.05   0.01
    15   6    -0.01   0.00  -0.01    -0.04  -0.02  -0.00    -0.03  -0.01  -0.01
    16   7    -0.11   0.02   0.05    -0.02  -0.06   0.04    -0.01  -0.04   0.03
    17   6    -0.01   0.08   0.08    -0.00  -0.04   0.04     0.00  -0.02   0.03
    18   6    -0.08  -0.01   0.00     0.02   0.00   0.03     0.01  -0.01   0.02
    19  15    -0.06   0.02   0.03    -0.01  -0.03   0.03    -0.00  -0.02   0.02
    20   6     0.02   0.02   0.01    -0.06  -0.03   0.07    -0.05  -0.03  -0.01
    21   6     0.05   0.01  -0.02    -0.09  -0.02   0.04    -0.08  -0.01  -0.04
    22   6     0.05  -0.03  -0.08    -0.10   0.00  -0.07    -0.09   0.01  -0.07
    23   6     0.02  -0.05  -0.10    -0.08   0.01  -0.14    -0.06   0.03  -0.07
    24   6    -0.01  -0.03  -0.06    -0.05   0.01  -0.11    -0.03   0.02  -0.04
    25   6    -0.05   0.11   0.13    -0.03  -0.01   0.03    -0.01   0.01   0.03
    26   6    -0.01   0.14   0.18    -0.02  -0.01   0.04    -0.01   0.02   0.04
    27   6     0.07   0.14   0.18     0.02  -0.05   0.06     0.02   0.00   0.05
    28   6     0.11   0.10   0.13     0.04  -0.09   0.08     0.03  -0.02   0.05
    29   6     0.07   0.07   0.08     0.03  -0.08   0.06     0.03  -0.03   0.04
    30   6    -0.06  -0.04  -0.00     0.14   0.13   0.04    -0.12  -0.17   0.01
    31   6    -0.08  -0.07  -0.03     0.17   0.17   0.04    -0.11  -0.16   0.00
    32   6    -0.12  -0.07  -0.05     0.09   0.08   0.04     0.04   0.01   0.00
    33   6    -0.13  -0.05  -0.04    -0.02  -0.05   0.03     0.17   0.17   0.01
    34   6    -0.11  -0.02  -0.02    -0.06  -0.08   0.03     0.16   0.16   0.02
    35   1    -0.03   0.08  -0.01     0.02   0.00  -0.01     0.01  -0.00  -0.04
    36   1    -0.05   0.00   0.04     0.09  -0.08   0.05     0.06  -0.03  -0.02
    37   1    -0.03  -0.11   0.06     0.12  -0.11   0.07     0.10  -0.03   0.01
    38   1     0.01  -0.15   0.02     0.08  -0.06   0.04     0.07  -0.01   0.02
    39   1    -0.02   0.11  -0.07    -0.04   0.09  -0.06    -0.04   0.03  -0.05
    40   1     0.02   0.05   0.05    -0.06  -0.05   0.15    -0.05  -0.05   0.02
    41   1     0.08   0.03  -0.01    -0.10  -0.03   0.09    -0.10  -0.03  -0.04
    42   1     0.08  -0.04  -0.10    -0.12   0.01  -0.10    -0.11   0.02  -0.09
    43   1     0.03  -0.08  -0.14    -0.08   0.03  -0.23    -0.07   0.05  -0.09
    44   1    -0.03  -0.05  -0.08    -0.04   0.02  -0.17    -0.02   0.03  -0.03
    45   1    -0.11   0.12   0.13    -0.05   0.03   0.01    -0.03   0.01   0.03
    46   1    -0.03   0.17   0.21    -0.04   0.02   0.02    -0.02   0.04   0.04
    47   1     0.11   0.16   0.21     0.03  -0.06   0.07     0.02   0.01   0.05
    48   1     0.17   0.09   0.13     0.07  -0.12   0.10     0.05  -0.03   0.05
    49   1     0.10   0.04   0.05     0.05  -0.10   0.07     0.04  -0.05   0.04
    50   1    -0.04  -0.03   0.01     0.20   0.20   0.04    -0.23  -0.30   0.01
    51   1    -0.07  -0.08  -0.04     0.26   0.27   0.04    -0.22  -0.29  -0.00
    52   1    -0.13  -0.10  -0.07     0.12   0.12   0.04     0.05   0.02  -0.00
    53   1    -0.16  -0.06  -0.06    -0.09  -0.11   0.03     0.29   0.31   0.01
    54   1    -0.13  -0.00  -0.01    -0.15  -0.18   0.03     0.26   0.28   0.03
                      4                      5                      6
                      A                      A                      A
 Frequencies --     34.7385                36.8744                40.8420
 Red. masses --      5.5321                 7.7369                 6.0068
 Frc consts  --      0.0039                 0.0062                 0.0059
 IR Inten    --      0.9056                 0.5229                 0.5863
  Atom  AN      X      Y      Z        X      Y      Z        X      Y      Z
     1   6    -0.02  -0.05  -0.15     0.11   0.04  -0.10     0.00  -0.01   0.04
     2   6     0.07  -0.06  -0.14     0.13   0.08  -0.12     0.05  -0.07   0.09
     3   6     0.12  -0.06  -0.08     0.16   0.08  -0.08     0.10  -0.13   0.13
     4   6     0.10  -0.04  -0.02     0.17   0.06  -0.03     0.10  -0.13   0.13
     5   6     0.02  -0.02  -0.03     0.16   0.02  -0.00     0.05  -0.07   0.09
     6   6    -0.04  -0.03  -0.09     0.12   0.02  -0.04    -0.00  -0.00   0.04
     7   6    -0.13  -0.01  -0.10     0.11  -0.02  -0.01    -0.06   0.07  -0.01
     8   8     0.01   0.00  -0.03     0.11  -0.03   0.03     0.03  -0.07  -0.13
     9   8    -0.10  -0.02   0.12     0.11   0.03   0.07    -0.04   0.05   0.04
    10  16    -0.07  -0.01   0.02     0.12  -0.01   0.05    -0.01   0.00  -0.02
    11   7    -0.16   0.00  -0.06     0.11  -0.03   0.03    -0.07   0.09  -0.04
    12   8    -0.01  -0.01   0.03     0.17  -0.01   0.06     0.04  -0.07   0.10
    13   6    -0.05  -0.07  -0.03     0.03   0.03  -0.11    -0.03  -0.02  -0.02
    14   7    -0.03  -0.03  -0.01    -0.01   0.02  -0.06     0.01   0.01  -0.04
    15   6     0.01   0.00   0.02    -0.10   0.01   0.01     0.02   0.04  -0.04
    16   7    -0.01  -0.00   0.01    -0.05   0.01  -0.02     0.04   0.03  -0.05
    17   6     0.02   0.02   0.01    -0.07  -0.03  -0.01    -0.02   0.05  -0.07
    18   6     0.01   0.01  -0.02    -0.07   0.00  -0.01    -0.02   0.04   0.03
    19  15     0.00   0.01  -0.00    -0.07   0.00  -0.01     0.01   0.05  -0.04
    20   6     0.01   0.00  -0.07    -0.12  -0.00   0.02     0.04   0.05  -0.12
    21   6     0.01   0.00  -0.01    -0.15   0.01   0.05     0.05   0.04  -0.14
    22   6     0.02   0.00   0.16    -0.15   0.04   0.08     0.06   0.02  -0.08
    23   6     0.02   0.01   0.25    -0.13   0.06   0.07     0.05   0.02   0.01
    24   6     0.02   0.00   0.18    -0.10   0.04   0.04     0.03   0.02   0.02
    25   6    -0.01   0.06   0.03    -0.04  -0.07   0.01     0.02  -0.01  -0.07
    26   6     0.01   0.08   0.05    -0.02  -0.11   0.02     0.03  -0.06  -0.07
    27   6     0.05   0.07   0.05    -0.04  -0.09   0.01     0.00  -0.06  -0.06
    28   6     0.08   0.04   0.04    -0.08  -0.05  -0.01    -0.04   0.00  -0.07
    29   6     0.06   0.02   0.02    -0.09  -0.02  -0.02    -0.05   0.06  -0.08
    30   6     0.04   0.02  -0.02    -0.06   0.02  -0.01    -0.09   0.05   0.04
    31   6     0.06   0.03  -0.04    -0.08   0.01  -0.00    -0.14   0.02   0.11
    32   6     0.03   0.02  -0.05    -0.11  -0.03  -0.00    -0.12  -0.02   0.15
    33   6    -0.01   0.00  -0.05    -0.12  -0.05  -0.00    -0.04  -0.04   0.14
    34   6    -0.02  -0.00  -0.03    -0.10  -0.03  -0.01     0.00  -0.01   0.07
    35   1    -0.06  -0.05  -0.19     0.08   0.04  -0.13    -0.03   0.03   0.01
    36   1     0.09  -0.08  -0.18     0.12   0.10  -0.17     0.05  -0.07   0.08
    37   1     0.19  -0.07  -0.07     0.18   0.11  -0.10     0.14  -0.18   0.16
    38   1     0.14  -0.03   0.03     0.20   0.06   0.00     0.13  -0.18   0.17
    39   1    -0.19  -0.01  -0.15     0.09  -0.03  -0.03    -0.09   0.12  -0.03
    40   1     0.00  -0.00  -0.20    -0.12  -0.03  -0.00     0.03   0.06  -0.17
    41   1     0.01   0.00  -0.08    -0.17  -0.00   0.06     0.06   0.05  -0.20
    42   1     0.03   0.01   0.22    -0.17   0.05   0.11     0.07   0.02  -0.09
    43   1     0.03   0.01   0.38    -0.13   0.08   0.10     0.05   0.00   0.06
    44   1     0.02   0.01   0.26    -0.09   0.05   0.03     0.02   0.02   0.09
    45   1    -0.04   0.07   0.03    -0.03  -0.08   0.01     0.05  -0.02  -0.07
    46   1    -0.02   0.11   0.06    -0.00  -0.14   0.03     0.06  -0.11  -0.06
    47   1     0.07   0.09   0.07    -0.04  -0.12   0.02     0.01  -0.11  -0.06
    48   1     0.11   0.03   0.04    -0.09  -0.04  -0.01    -0.07   0.01  -0.07
    49   1     0.08  -0.00   0.00    -0.11   0.01  -0.03    -0.09   0.10  -0.09
    50   1     0.06   0.03  -0.01    -0.04   0.05  -0.01    -0.11   0.09   0.01
    51   1     0.08   0.04  -0.04    -0.07   0.02  -0.00    -0.20   0.04   0.12
    52   1     0.04   0.02  -0.06    -0.13  -0.05   0.00    -0.16  -0.05   0.20
    53   1    -0.03  -0.01  -0.06    -0.15  -0.08  -0.00    -0.03  -0.07   0.17
    54   1    -0.05  -0.02  -0.03    -0.11  -0.05  -0.01     0.06  -0.02   0.06
                      7                      8                      9
                      A                      A                      A
 Frequencies --     47.8392                56.1044                58.3021
 Red. masses --      5.4060                 5.4226                 5.7966
 Frc consts  --      0.0073                 0.0101                 0.0116
 IR Inten    --      0.8986                 2.1463                 2.6492
  Atom  AN      X      Y      Z        X      Y      Z        X      Y      Z
     1   6     0.03  -0.10  -0.08    -0.10   0.13  -0.09     0.09  -0.10   0.02
     2   6     0.07  -0.09  -0.08    -0.08   0.13  -0.09     0.09  -0.09   0.01
     3   6     0.07  -0.04  -0.07    -0.01   0.06  -0.03     0.07  -0.05  -0.01
     4   6     0.04  -0.00  -0.05     0.04  -0.01   0.04     0.04  -0.01  -0.02
     5   6     0.00  -0.02  -0.04     0.02  -0.01   0.03     0.03  -0.02  -0.02
     6   6    -0.00  -0.07  -0.05    -0.05   0.06  -0.03     0.06  -0.06   0.00
     7   6    -0.04  -0.10  -0.03    -0.09   0.08  -0.04     0.06  -0.08   0.02
     8   8    -0.08   0.00   0.06     0.12  -0.06  -0.07    -0.09  -0.01   0.04
     9   8    -0.08  -0.02   0.05     0.01  -0.04   0.11    -0.02   0.04  -0.04
    10  16    -0.07  -0.02   0.03     0.04  -0.03   0.03    -0.02  -0.00  -0.00
    11   7    -0.07  -0.08   0.01    -0.06   0.05  -0.02     0.03  -0.06   0.02
    12   8    -0.03   0.02  -0.02     0.06  -0.08   0.12     0.01   0.02  -0.03
    13   6     0.05   0.06  -0.01    -0.04  -0.01   0.04     0.02   0.09  -0.09
    14   7     0.06   0.07  -0.01    -0.02  -0.02   0.00    -0.04   0.06  -0.05
    15   6     0.03   0.07   0.02     0.02  -0.04   0.00    -0.02  -0.02  -0.01
    16   7     0.06   0.08   0.00    -0.01  -0.02  -0.02    -0.11   0.02  -0.01
    17   6     0.03   0.04   0.00    -0.03  -0.01  -0.03    -0.08   0.02   0.00
    18   6     0.01   0.04   0.02    -0.01  -0.02  -0.00    -0.10   0.02  -0.01
    19  15     0.04   0.07   0.01    -0.01  -0.03  -0.02    -0.10   0.01  -0.01
    20   6     0.04   0.07   0.18     0.05  -0.02   0.15     0.06   0.04   0.01
    21   6     0.04   0.07   0.17     0.08  -0.03   0.20     0.15  -0.00   0.02
    22   6     0.03   0.07  -0.00     0.08  -0.06   0.08     0.16  -0.10   0.01
    23   6     0.02   0.06  -0.17     0.04  -0.09  -0.08     0.08  -0.15  -0.01
    24   6     0.03   0.06  -0.15     0.01  -0.07  -0.12    -0.01  -0.11  -0.02
    25   6     0.03   0.05  -0.03    -0.05   0.03  -0.07    -0.06  -0.03   0.04
    26   6     0.03   0.01  -0.04    -0.07   0.05  -0.09    -0.02  -0.06   0.07
    27   6     0.03  -0.05  -0.00    -0.08   0.04  -0.08    -0.02  -0.06   0.07
    28   6     0.03  -0.06   0.04    -0.06  -0.00  -0.05    -0.04  -0.01   0.03
    29   6     0.03  -0.02   0.04    -0.03  -0.03  -0.02    -0.07   0.03  -0.00
    30   6    -0.03   0.01   0.02    -0.02  -0.01   0.00    -0.08   0.04  -0.01
    31   6    -0.09  -0.06   0.02     0.02   0.04   0.03    -0.00   0.13  -0.00
    32   6    -0.12  -0.10   0.03     0.07   0.08   0.04     0.07   0.21   0.00
    33   6    -0.08  -0.06   0.03     0.08   0.06   0.04     0.05   0.18   0.00
    34   6    -0.01   0.01   0.02     0.04   0.01   0.01    -0.03   0.08  -0.01
    35   1     0.03  -0.14  -0.08    -0.14   0.17  -0.13     0.10  -0.13   0.03
    36   1     0.09  -0.12  -0.10    -0.11   0.18  -0.14     0.12  -0.12   0.02
    37   1     0.11  -0.03  -0.08     0.00   0.06  -0.03     0.08  -0.04  -0.01
    38   1     0.04   0.04  -0.05     0.09  -0.07   0.09     0.02   0.03  -0.04
    39   1    -0.04  -0.14  -0.04    -0.14   0.12  -0.08     0.08  -0.12   0.03
    40   1     0.05   0.07   0.30     0.05   0.00   0.23     0.05   0.11   0.01
    41   1     0.04   0.08   0.30     0.10  -0.01   0.32     0.21   0.04   0.04
    42   1     0.03   0.07  -0.01     0.10  -0.07   0.12     0.23  -0.13   0.02
    43   1     0.02   0.06  -0.31     0.04  -0.11  -0.18     0.09  -0.23  -0.02
    44   1     0.02   0.06  -0.27    -0.01  -0.09  -0.23    -0.07  -0.16  -0.03
    45   1     0.03   0.09  -0.06    -0.05   0.04  -0.08    -0.06  -0.03   0.05
    46   1     0.03   0.02  -0.07    -0.08   0.07  -0.11    -0.01  -0.09   0.10
    47   1     0.03  -0.08  -0.00    -0.10   0.06  -0.11     0.01  -0.09   0.10
    48   1     0.03  -0.10   0.07    -0.06  -0.01  -0.04    -0.04  -0.00   0.03
    49   1     0.03  -0.03   0.07    -0.01  -0.06   0.01    -0.09   0.06  -0.03
    50   1    -0.01   0.03   0.02    -0.06  -0.03  -0.01    -0.13  -0.01  -0.02
    51   1    -0.13  -0.09   0.02     0.01   0.06   0.03     0.01   0.15   0.00
    52   1    -0.17  -0.16   0.03     0.10   0.12   0.06     0.14   0.29   0.01
    53   1    -0.10  -0.09   0.03     0.11   0.09   0.05     0.11   0.24   0.01
    54   1     0.02   0.03   0.02     0.05  -0.00   0.01    -0.04   0.07  -0.01
                     10                     11                     12
                      A                      A                      A
 Frequencies --     68.0971                72.4168                82.0150
 Red. masses --      7.3543                 7.6118                 4.7585
 Frc consts  --      0.0201                 0.0235                 0.0189
 IR Inten    --      1.7342                 5.1950                 0.9517
  Atom  AN      X      Y      Z        X      Y      Z        X      Y      Z
     1   6     0.02  -0.03   0.08    -0.03   0.01  -0.05     0.06  -0.06   0.03
     2   6     0.01  -0.07   0.11    -0.00  -0.01  -0.04     0.06  -0.08   0.04
     3   6    -0.03  -0.05   0.06    -0.00   0.01  -0.04     0.04  -0.05   0.02
     4   6    -0.08   0.02  -0.02    -0.03   0.04  -0.05     0.02  -0.01  -0.00
     5   6    -0.07   0.06  -0.04    -0.05   0.06  -0.06     0.01  -0.00  -0.01
     6   6    -0.02   0.03   0.01    -0.06   0.05  -0.07     0.03  -0.03   0.00
     7   6    -0.01   0.06  -0.02    -0.11   0.08  -0.09    -0.01   0.01  -0.03
     8   8     0.16   0.19   0.11     0.21   0.17   0.07     0.07   0.06  -0.02
     9   8     0.08  -0.16   0.04     0.03  -0.19   0.15     0.00  -0.03   0.03
    10  16     0.05   0.03   0.01     0.03   0.02   0.04     0.01   0.02  -0.02
    11   7     0.00   0.05  -0.03    -0.11   0.07  -0.07    -0.04   0.04  -0.05
    12   8    -0.09   0.10  -0.13    -0.07   0.07  -0.07    -0.01   0.03  -0.04
    13   6    -0.10  -0.18  -0.13     0.05   0.17   0.10    -0.09  -0.16   0.01
    14   7    -0.05  -0.12  -0.11     0.03   0.12   0.06    -0.05  -0.08   0.05
    15   6    -0.02  -0.00  -0.09     0.01  -0.00   0.07     0.00   0.02   0.03
    16   7    -0.01  -0.06  -0.08     0.01   0.07   0.03     0.00  -0.02   0.06
    17   6     0.00   0.02  -0.08    -0.02  -0.05   0.03     0.01   0.01   0.05
    18   6    -0.02   0.01  -0.04    -0.01  -0.00   0.03     0.02   0.02   0.01
    19  15    -0.02  -0.00  -0.10    -0.00   0.01   0.05     0.01   0.01   0.05
    20   6    -0.01   0.00   0.01     0.02   0.01  -0.04     0.01   0.03   0.08
    21   6    -0.01   0.01   0.15     0.04  -0.01  -0.17     0.02   0.02   0.08
    22   6    -0.00   0.01   0.18     0.04  -0.03  -0.17     0.02   0.02   0.02
    23   6    -0.01   0.00   0.06     0.03  -0.03  -0.04     0.01   0.01  -0.04
    24   6    -0.02   0.00  -0.08     0.02  -0.02   0.08     0.00   0.01  -0.04
    25   6    -0.01   0.02  -0.04     0.02  -0.10  -0.00     0.09  -0.11   0.09
    26   6     0.05  -0.01   0.02     0.02  -0.18  -0.01     0.04  -0.08   0.04
    27   6     0.12  -0.05   0.04    -0.03  -0.21   0.01    -0.10   0.08  -0.06
    28   6     0.13  -0.05  -0.00    -0.08  -0.15   0.04    -0.18   0.20  -0.10
    29   6     0.07  -0.01  -0.07    -0.07  -0.07   0.05    -0.12   0.15  -0.04
    30   6    -0.08   0.04  -0.02     0.02  -0.01   0.02     0.05  -0.02  -0.01
    31   6    -0.10   0.05   0.05     0.03   0.00   0.00     0.04  -0.05  -0.05
    32   6    -0.05   0.03   0.10     0.02   0.02  -0.01     0.00  -0.04  -0.09
    33   6     0.01   0.00   0.08    -0.00   0.02  -0.01    -0.02   0.00  -0.08
    34   6     0.03  -0.01   0.01    -0.02   0.01   0.01    -0.01   0.03  -0.03
    35   1     0.06  -0.05   0.12    -0.03   0.00  -0.06     0.07  -0.08   0.04
    36   1     0.05  -0.13   0.17     0.02  -0.04  -0.03     0.09  -0.11   0.06
    37   1    -0.04  -0.08   0.08     0.02  -0.01  -0.03     0.05  -0.06   0.03
    38   1    -0.12   0.04  -0.06    -0.03   0.05  -0.05     0.00   0.01  -0.02
    39   1    -0.02   0.08  -0.02    -0.16   0.11  -0.13    -0.02   0.03  -0.03
    40   1    -0.01   0.01   0.00     0.02   0.02  -0.05     0.01   0.04   0.11
    41   1    -0.00   0.01   0.24     0.05   0.00  -0.27     0.03   0.03   0.12
    42   1     0.00   0.01   0.30     0.05  -0.04  -0.28     0.03   0.01   0.02
    43   1    -0.01   0.00   0.07     0.03  -0.05  -0.03     0.01  -0.00  -0.09
    44   1    -0.02  -0.00  -0.15     0.01  -0.03   0.17    -0.00   0.01  -0.08
    45   1    -0.06   0.04  -0.05     0.06  -0.07  -0.02     0.18  -0.22   0.15
    46   1     0.04  -0.00   0.06     0.05  -0.22  -0.04     0.10  -0.17   0.06
    47   1     0.17  -0.08   0.10    -0.03  -0.28   0.01    -0.15   0.13  -0.11
    48   1     0.19  -0.08   0.01    -0.12  -0.17   0.05    -0.29   0.33  -0.18
    49   1     0.08  -0.02  -0.10    -0.11  -0.03   0.07    -0.18   0.24  -0.06
    50   1    -0.12   0.05  -0.05     0.02  -0.01   0.03     0.07  -0.03   0.01
    51   1    -0.15   0.07   0.07     0.05   0.00  -0.00     0.06  -0.08  -0.07
    52   1    -0.06   0.04   0.15     0.04   0.02  -0.03    -0.01  -0.06  -0.12
    53   1     0.05  -0.01   0.12    -0.01   0.03  -0.02    -0.05   0.01  -0.10
    54   1     0.08  -0.03  -0.00    -0.04   0.02   0.02    -0.04   0.06  -0.02
                     13                     14                     15
                      A                      A                      A
 Frequencies --     89.8566                97.6338               123.6112
 Red. masses --      6.7900                 5.2038                10.0110
 Frc consts  --      0.0323                 0.0292                 0.0901
 IR Inten    --      5.1052                 1.4863                19.5041
  Atom  AN      X      Y      Z        X      Y      Z        X      Y      Z
     1   6     0.03  -0.07   0.03    -0.03   0.01  -0.01    -0.01   0.06  -0.10
     2   6     0.08  -0.12   0.07    -0.06   0.06  -0.05     0.05  -0.01  -0.06
     3   6     0.08  -0.13   0.07    -0.07   0.09  -0.06     0.12  -0.09   0.00
     4   6     0.03  -0.06   0.03    -0.04   0.05  -0.03     0.10  -0.07  -0.00
     5   6    -0.01  -0.01  -0.00    -0.01  -0.01   0.01     0.03   0.02  -0.06
     6   6    -0.00  -0.02   0.00    -0.01  -0.02   0.01    -0.00   0.05  -0.09
     7   6    -0.02  -0.01  -0.01    -0.04   0.01  -0.01     0.04  -0.02  -0.04
     8   8     0.04   0.07   0.07    -0.02  -0.03  -0.09    -0.09   0.02   0.11
     9   8     0.00  -0.07   0.05    -0.06   0.05   0.01     0.06   0.02  -0.11
    10  16    -0.00   0.00   0.03    -0.04   0.01  -0.02     0.02   0.00  -0.01
    11   7    -0.02  -0.01   0.00    -0.07   0.04  -0.04     0.11  -0.10   0.03
    12   8    -0.04   0.04  -0.04    -0.00  -0.03   0.04     0.01   0.05  -0.09
    13   6     0.22   0.31   0.04     0.08   0.17   0.05    -0.40   0.11   0.51
    14   7     0.11   0.14  -0.02     0.02   0.07  -0.01    -0.26   0.04   0.24
    15   6    -0.02  -0.06  -0.02    -0.01  -0.02  -0.06     0.02  -0.01  -0.05
    16   7    -0.01  -0.01  -0.05    -0.03  -0.01  -0.04    -0.10   0.03  -0.02
    17   6    -0.00  -0.02  -0.04     0.05  -0.03  -0.00     0.04  -0.01  -0.03
    18   6    -0.01  -0.07  -0.02     0.01  -0.03  -0.03     0.01  -0.01  -0.05
    19  15     0.00  -0.07  -0.03     0.01  -0.03  -0.05     0.02  -0.01  -0.04
    20   6    -0.06  -0.09  -0.00    -0.02  -0.03  -0.01     0.00  -0.02  -0.04
    21   6    -0.10  -0.07   0.03    -0.03  -0.02   0.07    -0.01  -0.02   0.00
    22   6    -0.11  -0.03   0.04    -0.04  -0.01   0.08    -0.01   0.00   0.03
    23   6    -0.07   0.00   0.01    -0.02   0.00   0.00     0.00   0.01   0.01
    24   6    -0.03  -0.02  -0.02    -0.01  -0.01  -0.07     0.02   0.00  -0.03
    25   6    -0.04   0.03  -0.03     0.12  -0.16   0.13     0.04  -0.02  -0.03
    26   6    -0.08   0.14  -0.06     0.17  -0.17   0.18     0.04  -0.02  -0.03
    27   6    -0.08   0.21  -0.10     0.14  -0.05   0.10     0.03  -0.01  -0.04
    28   6    -0.04   0.15  -0.11     0.06   0.09  -0.03     0.03  -0.00  -0.04
    29   6     0.00   0.03  -0.07     0.02   0.09  -0.08     0.03  -0.00  -0.04
    30   6    -0.01  -0.03  -0.01    -0.02   0.00  -0.02    -0.03   0.02  -0.03
    31   6     0.02   0.02   0.03    -0.03   0.02   0.03    -0.04   0.03   0.03
    32   6     0.06   0.02   0.05     0.01   0.01   0.06    -0.01   0.01   0.07
    33   6     0.05  -0.03   0.04     0.04  -0.03   0.05     0.04  -0.03   0.06
    34   6     0.02  -0.07   0.01     0.04  -0.04   0.00     0.05  -0.03  -0.01
    35   1     0.03  -0.07   0.03    -0.03  -0.00  -0.01    -0.05   0.10  -0.14
    36   1     0.11  -0.17   0.10    -0.08   0.09  -0.08     0.05  -0.01  -0.06
    37   1     0.12  -0.17   0.11    -0.10   0.14  -0.10     0.18  -0.16   0.05
    38   1     0.04  -0.06   0.04    -0.05   0.06  -0.03     0.14  -0.11   0.03
    39   1    -0.02  -0.01  -0.01    -0.04   0.02  -0.01     0.04  -0.05  -0.04
    40   1    -0.05  -0.13   0.00    -0.02  -0.05  -0.01     0.00  -0.04  -0.05
    41   1    -0.13  -0.09   0.05    -0.04  -0.03   0.12    -0.02  -0.02   0.02
    42   1    -0.14  -0.01   0.06    -0.05   0.00   0.14    -0.03   0.01   0.07
    43   1    -0.08   0.04   0.01    -0.02   0.02  -0.00    -0.00   0.03   0.03
    44   1    -0.00  -0.00  -0.04     0.00   0.00  -0.11     0.03   0.01  -0.04
    45   1    -0.05  -0.01  -0.00     0.14  -0.25   0.18     0.05  -0.03  -0.02
    46   1    -0.11   0.18  -0.05     0.22  -0.27   0.27     0.04  -0.02  -0.03
    47   1    -0.12   0.32  -0.14     0.17  -0.06   0.14     0.03  -0.00  -0.05
    48   1    -0.04   0.21  -0.14     0.04   0.19  -0.10     0.02   0.01  -0.05
    49   1     0.04  -0.01  -0.07    -0.03   0.19  -0.17     0.02   0.01  -0.04
    50   1    -0.03  -0.03  -0.02    -0.05   0.02  -0.04    -0.05   0.04  -0.06
    51   1     0.03   0.06   0.03    -0.05   0.05   0.04    -0.08   0.06   0.05
    52   1     0.09   0.06   0.07     0.01   0.02   0.10    -0.02   0.01   0.12
    53   1     0.08  -0.03   0.06     0.06  -0.04   0.08     0.06  -0.05   0.09
    54   1     0.03  -0.10  -0.00     0.07  -0.07  -0.01     0.09  -0.06  -0.02
                     16                     17                     18
                      A                      A                      A
 Frequencies --    135.8786               169.4408               192.4522
 Red. masses --      5.5290                 6.1882                 5.4690
 Frc consts  --      0.0601                 0.1047                 0.1193
 IR Inten    --      2.4583                 0.3209                 0.3079
  Atom  AN      X      Y      Z        X      Y      Z        X      Y      Z
     1   6    -0.16   0.19  -0.13    -0.00   0.00  -0.00     0.01  -0.01   0.00
     2   6    -0.08   0.07  -0.04    -0.00   0.00  -0.00     0.01  -0.01   0.00
     3   6     0.07  -0.15   0.10     0.00  -0.00   0.00     0.00   0.01  -0.01
     4   6     0.09  -0.16   0.11     0.00  -0.01   0.00    -0.00   0.02  -0.01
     5   6    -0.03   0.02  -0.02     0.00  -0.00  -0.00     0.00   0.00  -0.00
     6   6    -0.12   0.15  -0.10     0.00   0.00  -0.00     0.01  -0.01   0.00
     7   6    -0.04   0.05  -0.04     0.00   0.00  -0.00     0.00  -0.01   0.00
     8   8    -0.11   0.04   0.14    -0.01  -0.00   0.00     0.00  -0.01  -0.01
     9   8     0.04   0.01  -0.10     0.00   0.00  -0.01    -0.00   0.01   0.00
    10  16    -0.01   0.00   0.02     0.00  -0.00  -0.00     0.00  -0.00  -0.00
    11   7     0.09  -0.08   0.07     0.01  -0.00   0.00     0.00  -0.00  -0.00
    12   8    -0.05   0.04  -0.05     0.00   0.00  -0.01     0.00  -0.00   0.00
    13   6     0.13  -0.04  -0.14    -0.19  -0.11  -0.11     0.01  -0.02   0.21
    14   7     0.08  -0.02  -0.06    -0.01   0.12  -0.07     0.11  -0.07   0.02
    15   6    -0.00   0.00   0.00     0.04  -0.03   0.25     0.03  -0.02   0.02
    16   7     0.03  -0.02   0.01     0.14   0.24  -0.13     0.18  -0.04  -0.05
    17   6    -0.00   0.01   0.01    -0.01  -0.07  -0.03    -0.13   0.15  -0.15
    18   6     0.00   0.00   0.02    -0.05  -0.09  -0.07    -0.10  -0.06   0.11
    19  15    -0.00   0.00   0.01     0.01  -0.00  -0.01     0.00  -0.01   0.01
    20   6     0.00   0.00   0.01     0.01  -0.05   0.22     0.01  -0.04   0.02
    21   6     0.01   0.00   0.01    -0.04  -0.05   0.01    -0.03  -0.03   0.02
    22   6     0.01  -0.00   0.01    -0.05  -0.02  -0.17    -0.03   0.01   0.00
    23   6     0.00  -0.01  -0.01    -0.01   0.01  -0.03    -0.01   0.02  -0.01
    24   6    -0.00  -0.00  -0.01     0.03  -0.00   0.19     0.03   0.01  -0.00
    25   6     0.03  -0.05   0.05    -0.02  -0.07   0.04    -0.12   0.12  -0.10
    26   6     0.04  -0.07   0.06     0.00   0.01   0.07     0.00  -0.01   0.03
    27   6     0.02  -0.04   0.04     0.04   0.08   0.03     0.11  -0.10   0.09
    28   6    -0.02   0.03  -0.00     0.06   0.06  -0.04     0.04   0.03  -0.03
    29   6    -0.03   0.05  -0.01     0.04  -0.02  -0.06    -0.09   0.15  -0.16
    30   6     0.02  -0.01   0.01    -0.07  -0.04  -0.05    -0.03  -0.10   0.09
    31   6     0.02  -0.02  -0.01    -0.03   0.04   0.01     0.06  -0.05  -0.01
    32   6     0.01  -0.01  -0.02     0.04   0.06   0.05     0.06   0.06  -0.08
    33   6    -0.01   0.01  -0.02     0.04  -0.03   0.03    -0.06   0.05  -0.05
    34   6    -0.01   0.01   0.00    -0.01  -0.10  -0.03    -0.14  -0.01   0.05
    35   1    -0.22   0.29  -0.19     0.00   0.01  -0.00     0.01  -0.02   0.00
    36   1    -0.11   0.10  -0.06    -0.00   0.01  -0.00     0.02  -0.02   0.01
    37   1     0.18  -0.29   0.20     0.00  -0.01   0.00    -0.00   0.01  -0.01
    38   1     0.19  -0.31   0.20     0.00  -0.01   0.00    -0.01   0.03  -0.02
    39   1    -0.04   0.03  -0.04    -0.00   0.00  -0.01     0.01  -0.01   0.01
    40   1     0.00   0.00   0.01     0.02  -0.08   0.30     0.01  -0.07   0.03
    41   1     0.01   0.01   0.02    -0.06  -0.06  -0.06    -0.05  -0.04   0.03
    42   1     0.01  -0.00   0.01    -0.08  -0.01  -0.39    -0.06   0.02   0.00
    43   1     0.00  -0.01  -0.02    -0.02   0.04  -0.13    -0.01   0.05  -0.03
    44   1    -0.00  -0.01  -0.02     0.05   0.01   0.24     0.05   0.02  -0.01
    45   1     0.05  -0.08   0.07    -0.07  -0.11   0.07    -0.17   0.14  -0.11
    46   1     0.07  -0.12   0.09    -0.02   0.01   0.13     0.03  -0.07   0.11
    47   1     0.03  -0.06   0.05     0.05   0.14   0.04     0.24  -0.27   0.22
    48   1    -0.04   0.06  -0.02     0.10   0.11  -0.07     0.10  -0.01  -0.02
    49   1    -0.06   0.10  -0.04     0.06  -0.04  -0.11    -0.11   0.20  -0.22
    50   1     0.02  -0.02   0.02    -0.11  -0.04  -0.08    -0.02  -0.15   0.13
    51   1     0.03  -0.03  -0.01    -0.03   0.09   0.02     0.14  -0.08  -0.03
    52   1     0.01  -0.01  -0.04     0.10   0.13   0.09     0.15   0.13  -0.14
    53   1    -0.02   0.01  -0.03     0.08  -0.02   0.06    -0.08   0.11  -0.11
    54   1    -0.03   0.02   0.01     0.01  -0.14  -0.04    -0.23   0.01   0.07
                     19                     20                     21
                      A                      A                      A
 Frequencies --    196.4492               230.5506               248.4606
 Red. masses --      5.1158                 5.5449                 4.7873
 Frc consts  --      0.1163                 0.1736                 0.1741
 IR Inten    --      4.4443                 0.1054                 1.4091
  Atom  AN      X      Y      Z        X      Y      Z        X      Y      Z
     1   6     0.00   0.00  -0.00    -0.01   0.00  -0.02     0.00  -0.00   0.00
     2   6     0.00  -0.00  -0.00     0.17  -0.19   0.11    -0.00   0.00   0.00
     3   6     0.00  -0.00  -0.00     0.06  -0.00   0.01    -0.00   0.00  -0.00
     4   6     0.00  -0.00  -0.00    -0.11   0.22  -0.10     0.00  -0.01   0.00
     5   6     0.00   0.00  -0.00    -0.12   0.15  -0.06     0.01  -0.01   0.00
     6   6     0.00   0.00  -0.00    -0.16   0.19  -0.10     0.01  -0.01   0.00
     7   6     0.00  -0.00  -0.00    -0.12   0.14  -0.06     0.01  -0.01   0.00
     8   8     0.00   0.00   0.00    -0.05  -0.17  -0.02     0.00   0.00  -0.00
     9   8     0.00  -0.00  -0.00     0.06   0.02  -0.05    -0.01   0.00   0.01
    10  16     0.00   0.00  -0.00     0.04  -0.06   0.03    -0.00   0.00  -0.00
    11   7     0.00  -0.00  -0.00     0.06  -0.03   0.07    -0.00  -0.00  -0.00
    12   8     0.00   0.00  -0.00     0.02  -0.08   0.11     0.00   0.00  -0.01
    13   6     0.02   0.02   0.15     0.00   0.01  -0.01    -0.00   0.02  -0.07
    14   7     0.08  -0.05  -0.01    -0.00   0.01  -0.01    -0.06   0.03   0.01
    15   6    -0.15   0.05   0.04     0.00  -0.00  -0.00     0.06  -0.10   0.06
    16   7     0.16  -0.02  -0.08    -0.01   0.01  -0.00    -0.09   0.01   0.03
    17   6    -0.07  -0.13  -0.06    -0.00   0.00   0.00    -0.04   0.13  -0.03
    18   6     0.11   0.14   0.02     0.02  -0.00  -0.01     0.11   0.09  -0.05
    19  15    -0.03  -0.01  -0.02     0.00  -0.00  -0.00     0.00  -0.00  -0.00
    20   6    -0.07   0.11   0.03     0.00  -0.00  -0.00     0.01  -0.16   0.08
    21   6     0.05   0.06   0.00     0.00   0.00   0.00    -0.06  -0.14   0.03
    22   6     0.06  -0.05  -0.03     0.00   0.00   0.00    -0.07  -0.10  -0.04
    23   6    -0.03  -0.11   0.00     0.00   0.00  -0.00    -0.01  -0.06   0.00
    24   6    -0.14  -0.06   0.04     0.00   0.00  -0.01     0.06  -0.08   0.06
    25   6    -0.11  -0.10   0.03    -0.00  -0.01   0.01    -0.04   0.14  -0.05
    26   6    -0.07   0.01   0.08    -0.00  -0.01   0.02     0.01   0.01  -0.01
    27   6     0.01   0.08   0.04    -0.00  -0.01   0.02     0.04  -0.10   0.06
    28   6     0.07   0.02  -0.05    -0.01   0.01   0.00    -0.05   0.03   0.01
    29   6     0.02  -0.09  -0.10    -0.01   0.01  -0.00    -0.08   0.14  -0.03
    30   6     0.11   0.13   0.01     0.01   0.00  -0.01     0.12   0.15  -0.04
    31   6    -0.00  -0.00  -0.01     0.01  -0.00   0.00    -0.00   0.03  -0.01
    32   6    -0.10  -0.10  -0.02     0.00  -0.02   0.01    -0.10  -0.12   0.01
    33   6    -0.01   0.02  -0.01     0.02  -0.01   0.01     0.05   0.00   0.00
    34   6     0.10   0.14   0.01     0.02  -0.01  -0.00     0.16   0.11  -0.03
    35   1    -0.00  -0.00  -0.01     0.00  -0.07  -0.01     0.00   0.01   0.00
    36   1     0.00  -0.00  -0.00     0.36  -0.44   0.25    -0.01   0.01  -0.00
    37   1     0.01  -0.00  -0.00     0.13  -0.07   0.05    -0.01   0.00  -0.00
    38   1     0.01  -0.00   0.00    -0.14   0.31  -0.12    -0.00  -0.01  -0.00
    39   1     0.00  -0.00  -0.00    -0.17   0.18  -0.10     0.01  -0.01   0.00
    40   1    -0.07   0.20   0.04     0.00  -0.00  -0.01     0.02  -0.22   0.11
    41   1     0.12   0.12  -0.01    -0.00  -0.00   0.00    -0.09  -0.17   0.02
    42   1     0.14  -0.09  -0.07    -0.00   0.00   0.01    -0.12  -0.08  -0.12
    43   1    -0.02  -0.21  -0.01     0.00   0.01  -0.00    -0.01   0.01  -0.02
    44   1    -0.21  -0.10   0.06     0.01   0.00  -0.01     0.09  -0.06   0.09
    45   1    -0.18  -0.15   0.06    -0.00  -0.01   0.02    -0.05   0.19  -0.08
    46   1    -0.11   0.05   0.16     0.01  -0.02   0.02     0.04  -0.03  -0.01
    47   1     0.03   0.17   0.06     0.01  -0.02   0.02     0.11  -0.26   0.13
    48   1     0.15   0.06  -0.08    -0.01   0.02  -0.00    -0.06   0.00   0.03
    49   1     0.06  -0.12  -0.17    -0.02   0.02  -0.01    -0.12   0.19  -0.02
    50   1     0.15   0.16   0.02     0.01   0.01  -0.01     0.16   0.22  -0.06
    51   1    -0.03  -0.05  -0.01    -0.00  -0.00   0.00    -0.05   0.02  -0.00
    52   1    -0.23  -0.24  -0.03    -0.01  -0.02   0.01    -0.26  -0.28   0.03
    53   1    -0.05  -0.02  -0.02     0.02  -0.02   0.01     0.04  -0.03   0.02
    54   1     0.13   0.19   0.01     0.03  -0.01  -0.01     0.23   0.15  -0.04
                     22                     23                     24
                      A                      A                      A
 Frequencies --    255.1991               270.1756               278.4491
 Red. masses --      5.9659                 6.1435                 6.1895
 Frc consts  --      0.2289                 0.2642                 0.2827
 IR Inten    --      2.9661                 3.5434                 5.9159
  Atom  AN      X      Y      Z        X      Y      Z        X      Y      Z
     1   6    -0.00   0.00  -0.00     0.00  -0.01   0.00    -0.00   0.02  -0.00
     2   6     0.01  -0.01   0.01     0.01   0.00  -0.01    -0.01  -0.00   0.01
     3   6     0.00  -0.00   0.00     0.01   0.01  -0.01    -0.01  -0.01   0.01
     4   6    -0.01   0.02  -0.01     0.01   0.00   0.01    -0.01  -0.01  -0.01
     5   6    -0.01   0.01  -0.00     0.00  -0.01   0.01     0.00   0.01  -0.02
     6   6    -0.02   0.02  -0.01     0.00  -0.01   0.01     0.00   0.01  -0.02
     7   6    -0.01   0.01  -0.00    -0.00   0.00   0.00     0.01  -0.01  -0.00
     8   8    -0.00  -0.01  -0.00    -0.00   0.01   0.01     0.01  -0.01  -0.01
     9   8     0.00   0.00  -0.01     0.01  -0.01  -0.02    -0.02   0.02   0.04
    10  16     0.00  -0.00   0.00     0.00   0.00  -0.00     0.00   0.00   0.00
    11   7     0.00   0.00   0.00    -0.00   0.01  -0.00     0.01  -0.01   0.00
    12   8    -0.00  -0.01   0.01    -0.01  -0.00   0.01     0.01   0.01  -0.02
    13   6     0.06  -0.01   0.05    -0.15  -0.08  -0.01     0.10   0.02   0.15
    14   7     0.03  -0.06   0.02     0.09   0.16  -0.04     0.07  -0.17  -0.03
    15   6     0.01  -0.06   0.05     0.08  -0.08  -0.12     0.18  -0.04   0.01
    16   7     0.01  -0.06   0.05     0.20   0.22  -0.11     0.06  -0.14  -0.01
    17   6     0.13  -0.01   0.02    -0.00  -0.03   0.06    -0.05  -0.06   0.02
    18   6    -0.09   0.08   0.07    -0.01   0.05   0.08    -0.02   0.02  -0.14
    19  15     0.01   0.01   0.02     0.02   0.01   0.02     0.02  -0.02  -0.03
    20   6    -0.03  -0.10   0.08     0.01  -0.15  -0.20     0.13  -0.08   0.03
    21   6    -0.05  -0.10   0.02    -0.05  -0.12  -0.04     0.01  -0.03   0.00
    22   6    -0.06  -0.11  -0.05    -0.05  -0.07   0.16    -0.01   0.10  -0.03
    23   6    -0.02  -0.08   0.01     0.01  -0.03  -0.03     0.08   0.15   0.00
    24   6     0.00  -0.08   0.07     0.08  -0.06  -0.19     0.19   0.09   0.02
    25   6     0.19  -0.05  -0.04    -0.01  -0.04   0.08    -0.08  -0.06   0.10
    26   6     0.14  -0.01  -0.12    -0.04  -0.00   0.05    -0.10  -0.00   0.10
    27   6     0.08   0.06  -0.16    -0.09   0.03   0.03    -0.11   0.03   0.08
    28   6     0.10   0.00  -0.05    -0.05  -0.02   0.06    -0.06  -0.03   0.06
    29   6     0.16  -0.03   0.02    -0.02  -0.05   0.09    -0.06  -0.08   0.05
    30   6    -0.09   0.09   0.06     0.03   0.04   0.07    -0.09   0.10  -0.13
    31   6    -0.09   0.08  -0.00     0.01   0.00   0.01    -0.13   0.12  -0.05
    32   6    -0.14   0.12  -0.07    -0.05  -0.01  -0.03    -0.11   0.08  -0.00
    33   6    -0.15   0.15  -0.06    -0.05   0.06  -0.01    -0.03   0.03  -0.03
    34   6    -0.15   0.15   0.01    -0.03   0.10   0.04     0.00   0.02  -0.12
    35   1    -0.01  -0.00  -0.00    -0.01  -0.01  -0.01     0.01   0.03   0.01
    36   1     0.02  -0.03   0.02     0.00   0.01  -0.02    -0.01  -0.00   0.03
    37   1     0.01  -0.01   0.00     0.01   0.02  -0.01    -0.01  -0.03   0.02
    38   1    -0.01   0.03  -0.01     0.01   0.01   0.01    -0.01  -0.03  -0.02
    39   1    -0.01   0.01  -0.01    -0.01   0.02   0.00     0.02  -0.03   0.00
    40   1    -0.02  -0.14   0.12     0.02  -0.22  -0.28     0.14  -0.15   0.04
    41   1    -0.05  -0.11   0.01    -0.09  -0.15  -0.01    -0.07  -0.10   0.00
    42   1    -0.07  -0.10  -0.13    -0.09  -0.04   0.40    -0.09   0.13  -0.07
    43   1    -0.03  -0.05  -0.00     0.00   0.04  -0.00     0.07   0.24   0.00
    44   1     0.00  -0.08   0.10     0.10  -0.04  -0.27     0.27   0.15   0.03
    45   1     0.27  -0.06  -0.04    -0.01  -0.06   0.09    -0.12  -0.10   0.12
    46   1     0.14   0.00  -0.14    -0.04   0.01   0.03    -0.11   0.01   0.10
    47   1     0.00   0.14  -0.24    -0.13   0.09  -0.01    -0.13   0.10   0.06
    48   1     0.04  -0.00  -0.05    -0.05  -0.01   0.06    -0.02  -0.01   0.04
    49   1     0.17  -0.06   0.04    -0.02  -0.06   0.11    -0.05  -0.10   0.06
    50   1    -0.08   0.08   0.07     0.06   0.04   0.10    -0.13   0.15  -0.19
    51   1    -0.04   0.03  -0.02     0.05  -0.03   0.00    -0.17   0.15  -0.03
    52   1    -0.14   0.11  -0.11    -0.09  -0.06  -0.07    -0.14   0.08   0.06
    53   1    -0.17   0.16  -0.08    -0.08   0.07  -0.04     0.02  -0.01   0.03
    54   1    -0.22   0.21   0.03    -0.05   0.15   0.06     0.03  -0.00  -0.13
                     25                     26                     27
                      A                      A                      A
 Frequencies --    280.9432               289.5559               319.8665
 Red. masses --      7.4400                 5.6347                 5.2512
 Frc consts  --      0.3460                 0.2783                 0.3166
 IR Inten    --      1.0635                 1.8093                 1.9885
  Atom  AN      X      Y      Z        X      Y      Z        X      Y      Z
     1   6     0.01   0.14   0.01    -0.00   0.00  -0.00    -0.15  -0.03  -0.09
     2   6    -0.08  -0.02   0.14    -0.00  -0.00   0.00     0.01  -0.05  -0.09
     3   6    -0.12  -0.12   0.10    -0.00  -0.00   0.00     0.11  -0.06   0.01
     4   6    -0.10  -0.06  -0.12    -0.00   0.00  -0.00    -0.03   0.08   0.05
     5   6     0.05   0.07  -0.19    -0.00   0.00  -0.00    -0.17   0.07   0.05
     6   6     0.06   0.09  -0.16    -0.00   0.00  -0.00    -0.16  -0.02   0.04
     7   6     0.10  -0.10  -0.06     0.01  -0.01   0.00     0.14  -0.17   0.16
     8   8     0.04  -0.09  -0.10     0.00  -0.00  -0.01     0.20   0.08  -0.17
     9   8    -0.16   0.19   0.36    -0.00   0.01   0.01    -0.02   0.08   0.02
    10  16     0.01   0.00   0.03     0.00   0.00  -0.00     0.00   0.05  -0.04
    11   7     0.08  -0.11   0.02     0.00  -0.00   0.00     0.11  -0.10   0.03
    12   8     0.10   0.05  -0.16     0.00   0.00  -0.00    -0.12   0.00   0.08
    13   6    -0.03  -0.01  -0.02     0.01  -0.05   0.14    -0.01  -0.00  -0.00
    14   7    -0.01   0.03   0.01     0.14  -0.05  -0.05    -0.01   0.00   0.01
    15   6    -0.01  -0.00  -0.01    -0.13   0.02  -0.00     0.00   0.00   0.00
    16   7     0.00   0.03  -0.01     0.19   0.01  -0.05    -0.00   0.01   0.00
    17   6     0.01  -0.00  -0.00     0.08   0.13   0.12    -0.00  -0.00  -0.00
    18   6    -0.00   0.00   0.03     0.01  -0.03  -0.16     0.00  -0.00  -0.00
    19  15    -0.00   0.00   0.00     0.02   0.02   0.00     0.00   0.00   0.00
    20   6    -0.01  -0.00  -0.02    -0.11   0.05  -0.00     0.00  -0.00  -0.00
    21   6    -0.00  -0.00  -0.01    -0.02   0.00  -0.01     0.00  -0.00   0.00
    22   6    -0.00  -0.01   0.02    -0.00  -0.09   0.01     0.00  -0.00   0.00
    23   6    -0.01  -0.02   0.00    -0.06  -0.13   0.02     0.00   0.00  -0.01
    24   6    -0.02  -0.01  -0.02    -0.14  -0.08  -0.00     0.00   0.00  -0.00
    25   6     0.01  -0.01  -0.00     0.11   0.13   0.04    -0.00  -0.01  -0.00
    26   6     0.01  -0.00  -0.01     0.05   0.04  -0.04    -0.00  -0.00  -0.00
    27   6     0.01   0.00  -0.01    -0.04  -0.05   0.02     0.00   0.00  -0.00
    28   6     0.01   0.00  -0.01    -0.09   0.00   0.11     0.00  -0.00  -0.00
    29   6     0.01   0.00  -0.01    -0.04   0.12   0.15     0.00  -0.00  -0.01
    30   6     0.01  -0.01   0.03    -0.08   0.00  -0.15    -0.00  -0.00  -0.00
    31   6     0.02  -0.02   0.01    -0.08   0.05  -0.04    -0.00  -0.00   0.00
    32   6     0.01  -0.01  -0.00     0.01   0.05   0.03     0.00  -0.00   0.00
    33   6    -0.00   0.00   0.00     0.05  -0.06  -0.00     0.00  -0.00   0.00
    34   6    -0.01   0.01   0.02     0.04  -0.10  -0.11     0.00  -0.00  -0.00
    35   1     0.08   0.26   0.09    -0.00   0.00  -0.00    -0.20  -0.10  -0.15
    36   1    -0.08  -0.05   0.28    -0.00  -0.00   0.00     0.06  -0.11  -0.15
    37   1    -0.14  -0.26   0.20     0.00  -0.01   0.00     0.26  -0.14   0.06
    38   1    -0.17  -0.21  -0.21    -0.00  -0.00  -0.00     0.04   0.13   0.14
    39   1     0.15  -0.24  -0.05     0.01  -0.01   0.01     0.42  -0.33   0.37
    40   1    -0.01   0.00  -0.02    -0.11   0.09  -0.00    -0.00  -0.00  -0.01
    41   1     0.00   0.00  -0.01     0.05   0.06  -0.03     0.00  -0.00   0.00
    42   1     0.00  -0.02   0.04     0.05  -0.12   0.02     0.00  -0.00   0.00
    43   1    -0.01  -0.02   0.01    -0.05  -0.19   0.03     0.00   0.00  -0.01
    44   1    -0.02  -0.02  -0.03    -0.21  -0.13  -0.01     0.00  -0.00  -0.00
    45   1     0.02  -0.01  -0.00     0.18   0.17   0.01     0.00  -0.01   0.00
    46   1     0.01  -0.01  -0.00     0.09   0.02  -0.14    -0.00  -0.00   0.00
    47   1     0.01   0.00  -0.01    -0.06  -0.15  -0.01     0.00   0.00   0.00
    48   1     0.01   0.00  -0.01    -0.17  -0.05   0.14     0.01  -0.00  -0.00
    49   1     0.01   0.00  -0.01    -0.08   0.16   0.23     0.00  -0.00  -0.01
[...]
 Vibration     5          0.525              1.980              5.173
 Vibration     6          0.525              1.979              4.971
 Vibration     7          0.526              1.976              4.658
 Vibration     8          0.527              1.972              4.343
 Vibration     9          0.527              1.970              4.268
 Vibration    10          0.529              1.964              3.962
 Vibration    11          0.530              1.961              3.841
 Vibration    12          0.532              1.954              3.598
 Vibration    13          0.533              1.948              3.419
 Vibration    14          0.535              1.941              3.258
 Vibration    15          0.543              1.913              2.803
 Vibration    16          0.547              1.898              2.623
 Vibration    17          0.560              1.851              2.209
 Vibration    18          0.570              1.814              1.975
 Vibration    19          0.572              1.807              1.938
 Vibration    20          0.590              1.744              1.654
 Vibration    21          0.601              1.708              1.524
 Vibration    22          0.605              1.694              1.479
 Vibration    23          0.615              1.662              1.383
 Vibration    24          0.620              1.644              1.333
 Vibration    25          0.622              1.639              1.319
 Vibration    26          0.628              1.619              1.270
 Vibration    27          0.650              1.550              1.112
 Vibration    28          0.664              1.506              1.027
 Vibration    29          0.685              1.442              0.916
 Vibration    30          0.715              1.357              0.791
 Vibration    31          0.725              1.330              0.755
 Vibration    32          0.727              1.325              0.749
 Vibration    33          0.733              1.308              0.727
 Vibration    34          0.760              1.237              0.644
 Vibration    35          0.762              1.232              0.638
 Vibration    36          0.773              1.205              0.609
 Vibration    37          0.780              1.188              0.591
 Vibration    38          0.784              1.176              0.579
 Vibration    39          0.792              1.157              0.561
 Vibration    40          0.815              1.102              0.510
 Vibration    41          0.838              1.049              0.463
 Vibration    42          0.842              1.040              0.457
 Vibration    43          0.852              1.018              0.438
 Vibration    44          0.863              0.995              0.420
                       Q            Log10(Q)             Ln(Q)
 Total Bot       0.109457-185       -185.960756       -428.190465
 Total V=0       0.208492D+29         28.319089         65.207111
 Vib (Bot)       0.152999-201       -201.815313       -464.696931
 Vib (Bot)    1  0.195064D+02          1.290178          2.970744
 Vib (Bot)    2  0.981259D+01          0.991783          2.283666
 Vib (Bot)    3  0.759275D+01          0.880399          2.027194
 Vib (Bot)    4  0.525710D+01          0.720747          1.659580
 Vib (Bot)    5  0.495164D+01          0.694749          1.599719
 Vib (Bot)    6  0.446891D+01          0.650201          1.497144
 Vib (Bot)    7  0.381232D+01          0.581189          1.338237
 Vib (Bot)    8  0.324722D+01          0.511511          1.177798
 Vib (Bot)    9  0.312384D+01          0.494688          1.139062
 Vib (Bot)   10  0.267040D+01          0.426576          0.982227
 Vib (Bot)   11  0.250921D+01          0.399538          0.919969
 Vib (Bot)   12  0.221149D+01          0.344684          0.793665
 Vib (Bot)   13  0.201512D+01          0.304301          0.700678
 Vib (Bot)   14  0.185125D+01          0.267465          0.615862
 Vib (Bot)   15  0.145184D+01          0.161918          0.372830
 Vib (Bot)   16  0.131558D+01          0.119117          0.274277
 Vib (Bot)   17  0.104177D+01          0.017771          0.040919
 Vib (Bot)   18  0.907890D+00         -0.041967         -0.096632
 Vib (Bot)   19  0.887729D+00         -0.051720         -0.119089
 Vib (Bot)   20  0.743125D+00         -0.128938         -0.296891
 Vib (Bot)   21  0.682429D+00         -0.165943         -0.382097
 Vib (Bot)   22  0.661691D+00         -0.179345         -0.412956
 Vib (Bot)   23  0.619116D+00         -0.208228         -0.479463
 Vib (Bot)   24  0.597453D+00         -0.223696         -0.515079
 Vib (Bot)   25  0.591159D+00         -0.228296         -0.525670
 Vib (Bot)   26  0.570209D+00         -0.243966         -0.561751
 Vib (Bot)   27  0.504941D+00         -0.296760         -0.683314
 Vib (Bot)   28  0.470911D+00         -0.327061         -0.753086
 Vib (Bot)   29  0.427551D+00         -0.369012         -0.849682
 Vib (Bot)   30  0.379095D+00         -0.421252         -0.969969
 Vib (Bot)   31  0.365373D+00         -0.437264         -1.006837
 Vib (Bot)   32  0.363121D+00         -0.439949         -1.013020
 Vib (Bot)   33  0.354930D+00         -0.449857         -1.035835
 Vib (Bot)   34  0.323216D+00         -0.490507         -1.129434
 Vib (Bot)   35  0.321159D+00         -0.493279         -1.135818
 Vib (Bot)   36  0.310056D+00         -0.508560         -1.171002
 Vib (Bot)   37  0.303255D+00         -0.518192         -1.193180
 Vib (Bot)   38  0.298701D+00         -0.524764         -1.208313
 Vib (Bot)   39  0.291811D+00         -0.534898         -1.231647
 Vib (Bot)   40  0.272130D+00         -0.565223         -1.301474
 Vib (Bot)   41  0.254233D+00         -0.594768         -1.369504
 Vib (Bot)   42  0.251534D+00         -0.599403         -1.380175
 Vib (Bot)   43  0.244446D+00         -0.611818         -1.408762
 Vib (Bot)   44  0.237436D+00         -0.624453         -1.437857
 Vib (V=0)       0.291428D+13         12.464532         28.700645
 Vib (V=0)    1  0.200128D+02          1.301308          2.996373
 Vib (V=0)    2  0.103253D+02          1.013903          2.334599
 Vib (V=0)    3  0.810920D+01          0.908978          2.092999
 Vib (V=0)    4  0.578083D+01          0.761990          1.754547
 Vib (V=0)    5  0.547682D+01          0.738529          1.700525
 Vib (V=0)    6  0.499679D+01          0.698691          1.608796
 Vib (V=0)    7  0.434496D+01          0.637986          1.469017
 Vib (V=0)    8  0.378549D+01          0.578122          1.331174
 Vib (V=0)    9  0.366360D+01          0.563908          1.298446
 Vib (V=0)   10  0.321680D+01          0.507424          1.168388
 Vib (V=0)   11  0.305854D+01          0.485515          1.117939
 Vib (V=0)   12  0.276730D+01          0.442057          1.017874
 Vib (V=0)   13  0.257622D+01          0.410984          0.946325
 Vib (V=0)   14  0.241758D+01          0.383382          0.882769
 Vib (V=0)   15  0.203552D+01          0.308676          0.710753
 Vib (V=0)   16  0.190739D+01          0.280440          0.645736
 Vib (V=0)   17  0.165554D+01          0.218940          0.504129
 Vib (V=0)   18  0.153647D+01          0.186523          0.429486
 Vib (V=0)   19  0.151885D+01          0.181516          0.417956
 Vib (V=0)   20  0.139568D+01          0.144785          0.333379
 Vib (V=0)   21  0.134600D+01          0.129044          0.297134
 Vib (V=0)   22  0.132936D+01          0.123642          0.284696
 Vib (V=0)   23  0.129580D+01          0.112539          0.259131
 Vib (V=0)   24  0.127907D+01          0.106894          0.246134
 Vib (V=0)   25  0.127425D+01          0.105256          0.242361
 Vib (V=0)   26  0.125838D+01          0.099811          0.229824
 Vib (V=0)   27  0.121061D+01          0.083004          0.191124
 Vib (V=0)   28  0.118685D+01          0.074394          0.171299
 Vib (V=0)   29  0.115788D+01          0.063662          0.146587
 Vib (V=0)   30  0.112747D+01          0.052103          0.119972
 Vib (V=0)   31  0.111927D+01          0.048936          0.112678
 Vib (V=0)   32  0.111795D+01          0.048421          0.111493
 Vib (V=0)   33  0.111317D+01          0.046561          0.107210
 Vib (V=0)   34  0.109537D+01          0.039562          0.091095
 Vib (V=0)   35  0.109426D+01          0.039120          0.090077
 Vib (V=0)   36  0.108833D+01          0.036761          0.084646
 Vib (V=0)   37  0.108478D+01          0.035340          0.081374
 Vib (V=0)   38  0.108243D+01          0.034399          0.079206
 Vib (V=0)   39  0.107892D+01          0.032991          0.075965
 Vib (V=0)   40  0.106926D+01          0.029083          0.066965
 Vib (V=0)   41  0.106092D+01          0.025684          0.059139
 Vib (V=0)   42  0.105970D+01          0.025185          0.057990
 Vib (V=0)   43  0.105656D+01          0.023892          0.055014
 Vib (V=0)   44  0.105351D+01          0.022640          0.052130
 Electronic      0.100000D+01          0.000000          0.000000
 Translational   0.307339D+09          8.487617         19.543461
 Rotational      0.232777D+08          7.366939         16.963005
 ***** Axes restored to original set *****
 -------------------------------------------------------------------
 Center     Atomic                   Forces (Hartrees/Bohr)
 Number     Number              X              Y              Z
 -------------------------------------------------------------------
      1        6          -0.000001120   -0.000000441    0.000001439
      2        6          -0.000000327   -0.000002420   -0.000000175
      3        6          -0.000002750   -0.000001730    0.000000996
      4        6           0.000000483    0.000000092   -0.000000209
      5        6          -0.000002249   -0.000002661   -0.000002842
      6        6           0.000001109   -0.000000923    0.000000356
      7        6           0.000000566   -0.000001505   -0.000002485
      8        8           0.000001043   -0.000003439   -0.000002793
      9        8           0.000000168   -0.000002331   -0.000001816
     10       16           0.000001217   -0.000000743   -0.000002814
     11        7           0.000000483   -0.000001000    0.000000221
     12        8           0.000002512    0.000000221   -0.000000147
     13        6           0.000002781    0.000000221    0.000000258
     14        7          -0.000001239    0.000003249   -0.000000524
     15        6          -0.000000665    0.000000764    0.000000282
     16        7           0.000000657   -0.000000720   -0.000004200
     17        6          -0.000000645   -0.000000836    0.000000764
     18        6           0.000000470    0.000001867    0.000001765
     19       15           0.000001505    0.000002666    0.000004725
     20        6          -0.000000737   -0.000000275    0.000000201
     21        6          -0.000000526    0.000001861    0.000001902
     22        6          -0.000002357    0.000001449    0.000002124
     23        6          -0.000000938    0.000000338    0.000001623
     24        6           0.000000915    0.000002042    0.000001474
     25        6          -0.000001563    0.000001530   -0.000001186
     26        6           0.000001017   -0.000001843   -0.000001529
     27        6           0.000000247   -0.000000610    0.000000353
     28        6          -0.000001435   -0.000001201    0.000000154
     29        6           0.000001331   -0.000000884   -0.000001770
     30        6           0.000000098    0.000000132   -0.000000050
     31        6           0.000000633    0.000001177   -0.000000328
     32        6           0.000000789    0.000001836   -0.000000253
     33        6           0.000001352    0.000002012    0.000000004
     34        6           0.000000665    0.000000908   -0.000001153
     35        1          -0.000000625   -0.000000205    0.000000141
     36        1          -0.000000336   -0.000000522    0.000000888
     37        1          -0.000001003   -0.000002079    0.000000030
     38        1          -0.000001002   -0.000002985   -0.000000834
     39        1          -0.000000827    0.000000346   -0.000000701
     40        1           0.000000468    0.000000491    0.000001353
     41        1          -0.000001593    0.000000262    0.000001453
     42        1          -0.000001122    0.000001203    0.000002489
     43        1          -0.000000670    0.000002081    0.000002256
     44        1          -0.000000356    0.000001613    0.000001009
     45        1           0.000002144   -0.000002538   -0.000001053
     46        1           0.000000093   -0.000000600   -0.000001306
     47        1          -0.000000071   -0.000002046   -0.000000897
     48        1          -0.000000648   -0.000001508    0.000000167
     49        1          -0.000000910   -0.000000360    0.000001138
     50        1          -0.000000315    0.000000857    0.000000002
     51        1           0.000000508    0.000000790   -0.000000181
     52        1           0.000000983    0.000001743   -0.000000257
     53        1           0.000001376    0.000002621   -0.000000240
     54        1           0.000000414    0.000002036    0.000000178
 -------------------------------------------------------------------
 Cartesian Forces:  Max     0.000004725 RMS     0.000001448
 FormGI is forming the generalized inverse of G from B-inverse, IUseBI=4.

 ----------------------------------------------------------------------

 Electric dipole moment (input orientation):
 (Debye = 10**-18 statcoulomb cm , SI units = C m)
                  (au)            (Debye)         (10**-30 SI)
   Tot        0.669161D+01      0.170084D+02      0.567338D+02
   x          0.464228D+01      0.117995D+02      0.393589D+02
   y          0.311231D+01      0.791069D+01      0.263872D+02
   z          0.367972D+01      0.935293D+01      0.311980D+02

 Dipole polarizability, Alpha (input orientation).
 (esu units = cm**3 , SI units = C**2 m**2 J**-1)
 Alpha(0;0):
               (au)            (10**-24 esu)      (10**-40 SI)
   iso        0.402328D+03      0.596188D+02      0.663349D+02
   aniso      0.107611D+03      0.159463D+02      0.177427D+02
   xx         0.440067D+03      0.652112D+02      0.725572D+02
   yx         0.298203D+02      0.441891D+01      0.491670D+01
   yy         0.395757D+03      0.586452D+02      0.652516D+02
   zx        -0.276547D+02     -0.409801D+01     -0.455965D+01
   zy         0.314095D+02      0.465441D+01      0.517873D+01
   zz         0.371159D+03      0.550001D+02      0.611958D+02

 ----------------------------------------------------------------------

 Dipole orientation:
     6         -3.74796748          3.34673739         -1.44813939
     6         -5.48554263          3.48851191          0.50084035
     6         -7.89276029          2.44547546          0.18773623
     6         -8.58192287          1.25950539         -2.05323871
     6         -6.81204724          1.11056116         -3.97736120
     6         -4.39110610          2.13650018         -3.71490443
     6         -2.60112264          1.94895433         -5.77146354
     8         -4.75112193         -3.69423334         -6.98391868
     8         -6.39346840         -1.06552439        -10.55617044
    16         -5.36380506         -1.24939365         -8.04416417
     7         -2.86757471          0.61539765         -7.80081433
     8         -7.54645402          0.04437380         -6.23772428
     6          2.74648095          4.27772571         -2.81680835
     7          3.59470423          2.54218401         -1.71387639
     6          3.38194670          2.33626140          4.37446834
     7          4.71127087          0.56274143         -0.62232992
     6          0.25558849         -1.36809960          1.82057586
     6          5.46480095         -2.69602554          3.26652114
    15          3.46478353         -0.21012771          2.08866345
     6          1.51740228          4.20382372          4.17056395
     6          1.54450926          6.27406805          5.78678705
     6          3.42699496          6.48904194          7.61522409
     6          5.28571379          4.63732037          7.82552457
     6          5.27350209          2.56650195          6.20578622
     6         -0.48916142         -2.40297153         -0.49318858
     6         -2.91574748         -3.37343481         -0.77716091
     6         -4.59699284         -3.31281480          1.24563390
     6         -3.85983012         -2.29021872          3.55768566
     6         -1.43950558         -1.31197660          3.85067173
     6          4.48841648         -4.50865054          4.92205386
     6          6.06610574         -6.37077488          5.89648425
     6          8.60932978         -6.42886216          5.21908036
     6          9.58196128         -4.62627828          3.56494896
     6          8.01862239         -2.75311896          2.58683647
     1         -1.86914535          4.15390056         -1.27376235
     1         -4.98874356          4.40736488          2.26394574
     1         -9.25528953          2.55516115          1.71611272
     1        -10.44651315          0.45557718         -2.32159009
     1         -0.84380050          3.01687757         -5.61432338
     1          0.02836614          4.02643993          2.77153563
     1          0.09483490          7.71497377          5.62131213
     1          3.44268380          8.10279005          8.88144358
     1          6.74780995          4.80186489          9.25397404
     1          6.73003751          1.13152215          6.37590541
     1          0.82395416         -2.42674324         -2.07090022
     1         -3.49809594         -4.14441146         -2.58585652
     1         -6.49656813         -4.05163369          1.01477404
     1         -5.17632950         -2.23818645          5.12934327
     1         -0.88195509         -0.49541165          5.64909511
     1          2.50284048         -4.48426205          5.43962071
     1          5.30549926         -7.78128233          7.17579697
     1          9.83574540         -7.88765883          5.97804218
     1         11.56134390         -4.67801108          3.03147401
     1          8.75933951         -1.35091535          1.28822266

 Electric dipole moment (dipole orientation):
 (Debye = 10**-18 statcoulomb cm , SI units = C m)
                  (au)            (Debye)         (10**-30 SI)
   Tot        0.669161D+01      0.170084D+02      0.567338D+02
   x          0.000000D+00      0.000000D+00      0.000000D+00
   y          0.000000D+00      0.000000D+00      0.000000D+00
   z          0.669161D+01      0.170084D+02      0.567338D+02

 Dipole polarizability, Alpha (dipole orientation).
 (esu units = cm**3 , SI units = C**2 m**2 J**-1)
 Alpha(0;0):
               (au)            (10**-24 esu)      (10**-40 SI)
   iso        0.402328D+03      0.596188D+02      0.663349D+02
   aniso      0.107611D+03      0.159463D+02      0.177427D+02
   xx         0.431950D+03      0.640084D+02      0.712189D+02
   yx        -0.614753D+01     -0.910970D+00     -0.101359D+01
   yy         0.351178D+03      0.520393D+02      0.579015D+02
   zx         0.249282D+02      0.369397D+01      0.411010D+01
   zy         0.349608D+02      0.518065D+01      0.576425D+01
   zz         0.423855D+03      0.628088D+02      0.698843D+02

 ----------------------------------------------------------------------

 This type of calculation cannot be archived.


 A CHEMICAL PHYSICIST MAKES PRECISE MEASUREMENTS ON IMPURE COMPOUNDS.
 A THEORETICAL PHYSICAL CHEMIST MAKES IMPRECISE
     MEASUREMENTS ON PURE COMPOUNDS.
 AN EXPERIMENTAL PHYSICAL CHEMIST MAKES IMPRECISE
     MEASUREMENTS ON IMPURE COMPOUNDS.
 Job cpu time:       0 days  0 hours  0 minutes  2.5 seconds.
 Elapsed time:       0 days  0 hours  0 minutes  0.7 seconds.
 File lengths (MBytes):  RWF=      6 Int=      0 D2E=      0 Chk=      8 Scr=      1
 Normal termination of Gaussian 16 at Sat Apr  4 19:43:38 2020.
