 Entering Gaussian System, Link 0=g16
 Initial command:
 /apps/cent7/gaussian/g16-A.03/g16-haswell/g16/l1.exe "/scratch/brown/finej/0051_imine_mechanism/ts_631gd/cyclic_complete_2/new_logs_2/Gau-213315.inp" -scrdir="/scratch/brown/finej/0051_imine_mechanism/ts_631gd/cyclic_complete_2/new_logs_2/"
 Entering Link 1 = /apps/cent7/gaussian/g16-A.03/g16-haswell/g16/l1.exe PID=    213316.
  
 Copyright (c) 1988,1990,1992,1993,1995,1998,2003,2009,2016,
            Gaussian, Inc.  All Rights Reserved.
  
 This is part of the Gaussian(R) 16 program.  It is based on
 the Gaussian(R) 09 system (copyright 2009, Gaussian, Inc.),
 the Gaussian(R) 03 system (copyright 2003, Gaussian, Inc.),
 the Gaussian(R) 98 system (copyright 1998, Gaussian, Inc.),
 the Gaussian(R) 94 system (copyright 1995, Gaussian, Inc.),
 the Gaussian 92(TM) system (copyright 1992, Gaussian, Inc.),
 the Gaussian 90(TM) system (copyright 1990, Gaussian, Inc.),
 the Gaussian 88(TM) system (copyright 1988, Gaussian, Inc.),
 the Gaussian 86(TM) system (copyright 1986, Carnegie Mellon
 University), and the Gaussian 82(TM) system (copyright 1983,
 Carnegie Mellon University). Gaussian is a federally registered
 trademark of Gaussian, Inc.
  
 This software contains proprietary and confidential information,
 including trade secrets, belonging to Gaussian, Inc.
  
 This software is provided under written license and may be
 used, copied, transmitted, or stored only in accord with that
 written license.
  
 The following legend is applicable only to US Government
 contracts under FAR:
  
                    RESTRICTED RIGHTS LEGEND
  
 Use, reproduction and disclosure by the US Government is
 subject to restrictions as set forth in subparagraphs (a)
 and (c) of the Commercial Computer Software - Restricted
 Rights clause in FAR 52.227-19.
  
 Gaussian, Inc.
 340 Quinnipiac St., Bldg. 40, Wallingford CT 06492
  
  
 ---------------------------------------------------------------
 Warning -- This program may not be used in any manner that
 competes with the business of Gaussian, Inc. or will provide
 assistance to any competitor of Gaussian, Inc.  The licensee
 of this program is prohibited from giving any competitor of
 Gaussian, Inc. access to this program.  By using this program,
 the user acknowledges that Gaussian, Inc. is engaged in the
 business of creating and licensing software in the field of
 computational chemistry and represents and warrants to the
 licensee that it is not a competitor of Gaussian, Inc. and that
 it will not use this program in any manner prohibited above.
 ---------------------------------------------------------------
  

 Cite this work as:
 Gaussian 16, Revision A.03,
 M. J. Frisch, G. W. Trucks, H. B. Schlegel, G. E. Scuseria, 
 M. A. Robb, J. R. Cheeseman, G. Scalmani, V. Barone, 
 G. A. Petersson, H. Nakatsuji, X. Li, M. Caricato, A. V. Marenich, 
 J. Bloino, B. G. Janesko, R. Gomperts, B. Mennucci, H. P. Hratchian, 
 J. V. Ortiz, A. F. Izmaylov, J. L. Sonnenberg, D. Williams-Young, 
 F. Ding, F. Lipparini, F. Egidi, J. Goings, B. Peng, A. Petrone, 
 T. Henderson, D. Ranasinghe, V. G. Zakrzewski, J. Gao, N. Rega, 
 G. Zheng, W. Liang, M. Hada, M. Ehara, K. Toyota, R. Fukuda, 
 J. Hasegawa, M. Ishida, T. Nakajima, Y. Honda, O. Kitao, H. Nakai, 
 T. Vreven, K. Throssell, J. A. Montgomery, Jr., J. E. Peralta, 
 F. Ogliaro, M. J. Bearpark, J. J. Heyd, E. N. Brothers, K. N. Kudin, 
 V. N. Staroverov, T. A. Keith, R. Kobayashi, J. Normand, 
 K. Raghavachari, A. P. Rendell, J. C. Burant, S. S. Iyengar, 
 J. Tomasi, M. Cossi, J. M. Millam, M. Klene, C. Adamo, R. Cammi, 
 J. W. Ochterski, R. L. Martin, K. Morokuma, O. Farkas, 
 J. B. Foresman, and D. J. Fox, Gaussian, Inc., Wallingford CT, 2016.
 
 ******************************************
 Gaussian 16:  ES64L-G16RevA.03 25-Dec-2016
                 4-Apr-2020 
 ******************************************
 %nprocshared=4
 Will use up to    4 processors via shared memory.
 %mem=1GB
 %oldchk=chk/cyclic_3_to_4.chk
 Copying data from "chk/cyclic_3_to_4.chk" to current chk file "/scratch/brown/finej/0051_imine_mechanism/ts_631gd/cyclic_complete_2/new_logs_2/Gau-213316.chk"
 IOpt=  2 FromEx=T IUOpen= 4 IOptOp= 5 NList=   0 IFRang= 0 IUIn= 4 IUOut= 2.
 ----------------------------------------------------------------------
 # freq=readfc wb97xd/6-31g(d) scrf=solvent=dichloromethane geom=check 
 temperature=263.15
 ----------------------------------------------------------------------
 1/29=2,38=1,112=263150,172=1/1;
 2/12=2,40=1/2;
 7/8=1,25=11/16;
 99/5=2/99;
 ------------
 Ring closing
 ------------
 Structure from the checkpoint file:  "/scratch/brown/finej/0051_imine_mechanism/ts_631gd/cyclic_complete_2/new_logs_2/Gau-213316.chk"
 Charge =  0 Multiplicity = 1
 Redundant internal coordinates found in file.  (old form).
 C,0,-3.1214967752,-0.9091830528,2.0419220567
 C,0,-3.8325858435,-1.8428443857,2.7835030343
 C,0,-5.1417948627,-2.1618232333,2.4261351846
 C,0,-5.7357907417,-1.5380640345,1.3373689458
 C,0,-5.0051915219,-0.6084227829,0.6093153178
 C,0,-3.6896144186,-0.2831467886,0.9302948576
 C,0,-2.8814994979,0.7450940259,0.1496077903
 O,0,-5.6963204338,1.5703686782,-2.3259226838
 O,0,-5.4097994305,2.3629200493,0.038152526
 S,0,-5.1481792871,1.3918732205,-1.0058774266
 N,0,-3.5428181118,1.0217553941,-1.1387757661
 O,0,-5.6659579826,-0.0511288682,-0.4911313176
 C,0,1.3180644478,-3.0326523235,-2.0147559031
 C,0,1.8303619057,-4.3008246509,-1.7570992478
 C,0,1.5098563904,-4.9529379075,-0.5702209148
 C,0,0.6715125921,-4.3344720194,0.357937207
 C,0,0.1577831769,-3.0693767161,0.0991496296
 O,0,0.2171284618,-0.4774592088,-2.4752602103
 C,0,0.4832936965,-2.4130459985,-1.0886424317
 C,0,-0.0287567591,-1.0385212882,-1.4163948892
 O,0,-1.3693002479,-0.855140079,-0.8670685291
 C,0,-1.4957263822,0.2482409204,-0.1194206332
 N,0,-0.4696967203,0.7972092245,0.4132701236
 C,0,2.2519620945,2.2565370349,-0.7003508654
 N,0,0.6315670967,0.0131348185,0.0908966093
 C,0,3.257935274,-0.5069391791,-0.3945367972
 C,0,2.5514970454,1.0706375026,1.9493540641
 P,0,2.0935876848,0.7138581478,0.2318776014
 C,0,3.1000583736,3.2879543842,-0.2847338068
 C,0,3.2031439466,4.4458948283,-1.0480095629
 C,0,2.4589673167,4.5775198773,-2.2188077306
 C,0,1.6094457922,3.5525995998,-2.6296324212
 C,0,1.4991214555,2.3899183278,-1.8731476498
 C,0,3.8859477117,-0.3377222832,-1.6290425491
 C,0,4.7403501301,-1.3269157149,-2.10821874
 C,0,4.9673220152,-2.4757821966,-1.3565319248
 C,0,4.3391153899,-2.6453917164,-0.1238198485
 C,0,3.4840821343,-1.6647088065,0.3592829473
 C,0,1.5534313843,1.4033929211,2.8715497789
 C,0,1.9004267747,1.7041451984,4.1847593272
 C,0,3.2361438172,1.678120847,4.5798598633
 C,0,4.2312684507,1.3475202222,3.6629464379
 C,0,3.8923928967,1.0411944283,2.3488135233
 H,0,-2.0999742786,-0.659927819,2.3162332365
 H,0,-3.3663045994,-2.3214680302,3.6379931493
 H,0,-5.7047036508,-2.892145493,2.9977428276
 H,0,-6.7552607458,-1.7571950214,1.0399329479
 H,0,-2.77967652,1.6578596336,0.7503594447
 H,0,-3.0594699426,1.7176832944,-1.7029572295
 H,0,1.5693504948,-2.5047840771,-2.9283430093
 H,0,2.4868457761,-4.775012604,-2.4804952778
 H,0,1.9111198525,-5.9413317579,-0.3657138144
 H,0,0.4173839438,-4.8415807426,1.2841174644
 H,0,-0.4923814325,-2.5833159013,0.8192598287
 H,0,3.6742149615,3.1950947978,0.6320099004
 H,0,3.8604187528,5.2471642184,-0.7258223567
 H,0,2.5388150351,5.4843429445,-2.8105227108
 H,0,1.0278108656,3.6589720811,-3.5398654573
 H,0,0.8416276155,1.5821712425,-2.1895226808
 H,0,3.708325469,0.5566498895,-2.217681006
 H,0,5.2280135193,-1.1970478341,-3.0688939564
 H,0,5.6337923763,-3.2454527688,-1.733517218
 H,0,4.5061605861,-3.5472868868,0.4554144539
 H,0,2.9861969572,-1.8032174254,1.3139142512
 H,0,0.5138332045,1.4233581525,2.5599014297
 H,0,1.1254546335,1.9583352774,4.9007916719
 H,0,3.5022749531,1.9130625949,5.6057624533
 H,0,5.2716518461,1.3223535037,3.9706943808
 H,0,4.6711128367,0.7728333042,1.6406202991
 Recover connectivity data from disk.
                           ----------------------------
                           !    Current Parameters    !
                           ! (Angstroms and Degrees)  !
 --------------------------                            --------------------------
 ! Name  Definition              Value          Derivative Info.                !
 --------------------------------------------------------------------------------
 ! R1    R(1,2)                  1.3883         estimate D2E/DX2                !
 ! R2    R(1,6)                  1.3966         estimate D2E/DX2                !
 ! R3    R(1,44)                 1.0867         estimate D2E/DX2                !
 ! R4    R(2,3)                  1.3941         estimate D2E/DX2                !
 ! R5    R(2,45)                 1.0847         estimate D2E/DX2                !
 ! R6    R(3,4)                  1.3883         estimate D2E/DX2                !
 ! R7    R(3,46)                 1.0849         estimate D2E/DX2                !
 ! R8    R(4,5)                  1.3885         estimate D2E/DX2                !
 ! R9    R(4,47)                 1.0843         estimate D2E/DX2                !
 ! R10   R(5,6)                  1.3927         estimate D2E/DX2                !
 ! R11   R(5,12)                 1.3993         estimate D2E/DX2                !
 ! R12   R(6,7)                  1.5231         estimate D2E/DX2                !
 ! R13   R(7,11)                 1.4744         estimate D2E/DX2                !
 ! R14   R(7,22)                 1.4965         estimate D2E/DX2                !
 ! R15   R(7,48)                 1.0975         estimate D2E/DX2                !
 ! R16   R(8,10)                 1.4404         estimate D2E/DX2                !
 ! R17   R(9,10)                 1.4496         estimate D2E/DX2                !
 ! R18   R(10,11)                1.6528         estimate D2E/DX2                !
 ! R19   R(10,12)                1.6172         estimate D2E/DX2                !
 ! R20   R(11,49)                1.018          estimate D2E/DX2                !
 ! R21   R(13,14)                1.3918         estimate D2E/DX2                !
 ! R22   R(13,19)                1.3923         estimate D2E/DX2                !
 ! R23   R(13,50)                1.0846         estimate D2E/DX2                !
 ! R24   R(14,15)                1.3916         estimate D2E/DX2                !
 ! R25   R(14,51)                1.0859         estimate D2E/DX2                !
 ! R26   R(15,16)                1.3953         estimate D2E/DX2                !
 ! R27   R(15,52)                1.0862         estimate D2E/DX2                !
 ! R28   R(16,17)                1.3897         estimate D2E/DX2                !
 ! R29   R(16,53)                1.0861         estimate D2E/DX2                !
 ! R30   R(17,19)                1.3956         estimate D2E/DX2                !
 ! R31   R(17,54)                1.0851         estimate D2E/DX2                !
 ! R32   R(18,20)                1.2233         estimate D2E/DX2                !
 ! R33   R(19,20)                1.503          estimate D2E/DX2                !
 ! R34   R(20,21)                1.4603         estimate D2E/DX2                !
 ! R35   R(21,22)                1.3388         estimate D2E/DX2                !
 ! R36   R(22,23)                1.2798         estimate D2E/DX2                !
 ! R37   R(23,25)                1.3898         estimate D2E/DX2                !
 ! R38   R(24,28)                1.8094         estimate D2E/DX2                !
 ! R39   R(24,29)                1.3985         estimate D2E/DX2                !
 ! R40   R(24,33)                1.4            estimate D2E/DX2                !
 ! R41   R(25,28)                1.6274         estimate D2E/DX2                !
 ! R42   R(26,28)                1.7996         estimate D2E/DX2                !
 ! R43   R(26,34)                1.3954         estimate D2E/DX2                !
 ! R44   R(26,38)                1.3999         estimate D2E/DX2                !
 ! R45   R(27,28)                1.8129         estimate D2E/DX2                !
 ! R46   R(27,39)                1.399          estimate D2E/DX2                !
 ! R47   R(27,43)                1.3994         estimate D2E/DX2                !
 ! R48   R(29,30)                1.3907         estimate D2E/DX2                !
 ! R49   R(29,55)                1.0857         estimate D2E/DX2                !
 ! R50   R(30,31)                1.3935         estimate D2E/DX2                !
 ! R51   R(30,56)                1.0853         estimate D2E/DX2                !
 ! R52   R(31,32)                1.3932         estimate D2E/DX2                !
 ! R53   R(31,57)                1.0857         estimate D2E/DX2                !
 ! R54   R(32,33)                1.3915         estimate D2E/DX2                !
 ! R55   R(32,58)                1.0854         estimate D2E/DX2                !
 ! R56   R(33,59)                1.0885         estimate D2E/DX2                !
 ! R57   R(34,35)                1.3922         estimate D2E/DX2                !
 ! R58   R(34,60)                1.0853         estimate D2E/DX2                !
 ! R59   R(35,36)                1.3916         estimate D2E/DX2                !
 ! R60   R(35,61)                1.0852         estimate D2E/DX2                !
 ! R61   R(36,37)                1.3939         estimate D2E/DX2                !
 ! R62   R(36,62)                1.0857         estimate D2E/DX2                !
 ! R63   R(37,38)                1.3879         estimate D2E/DX2                !
 ! R64   R(37,63)                1.0848         estimate D2E/DX2                !
 ! R65   R(38,64)                1.0855         estimate D2E/DX2                !
 ! R66   R(39,40)                1.3912         estimate D2E/DX2                !
 ! R67   R(39,65)                1.0855         estimate D2E/DX2                !
 ! R68   R(40,41)                1.3932         estimate D2E/DX2                !
 ! R69   R(40,66)                1.0853         estimate D2E/DX2                !
 ! R70   R(41,42)                1.3929         estimate D2E/DX2                !
 ! R71   R(41,67)                1.0856         estimate D2E/DX2                !
 ! R72   R(42,43)                1.3913         estimate D2E/DX2                !
 ! R73   R(42,68)                1.0852         estimate D2E/DX2                !
 ! R74   R(43,69)                1.0863         estimate D2E/DX2                !
 ! A1    A(2,1,6)              121.2181         estimate D2E/DX2                !
 ! A2    A(2,1,44)             120.0605         estimate D2E/DX2                !
 ! A3    A(6,1,44)             118.7187         estimate D2E/DX2                !
 ! A4    A(1,2,3)              119.8659         estimate D2E/DX2                !
 ! A5    A(1,2,45)             119.8254         estimate D2E/DX2                !
 ! A6    A(3,2,45)             120.3088         estimate D2E/DX2                !
 ! A7    A(2,3,4)              120.0033         estimate D2E/DX2                !
 ! A8    A(2,3,46)             120.4136         estimate D2E/DX2                !
 ! A9    A(4,3,46)             119.5821         estimate D2E/DX2                !
 ! A10   A(3,4,5)              119.1365         estimate D2E/DX2                !
 ! A11   A(3,4,47)             121.7753         estimate D2E/DX2                !
 ! A12   A(5,4,47)             119.0882         estimate D2E/DX2                !
 ! A13   A(4,5,6)              122.1781         estimate D2E/DX2                !
 ! A14   A(4,5,12)             115.5001         estimate D2E/DX2                !
 ! A15   A(6,5,12)             122.2952         estimate D2E/DX2                !
 ! A16   A(1,6,5)              117.5826         estimate D2E/DX2                !
 ! A17   A(1,6,7)              119.6553         estimate D2E/DX2                !
 ! A18   A(5,6,7)              122.7342         estimate D2E/DX2                !
 ! A19   A(6,7,11)             109.6699         estimate D2E/DX2                !
 ! A20   A(6,7,22)             111.0582         estimate D2E/DX2                !
 ! A21   A(6,7,48)             109.277          estimate D2E/DX2                !
 ! A22   A(11,7,22)            108.6963         estimate D2E/DX2                !
 ! A23   A(11,7,48)            111.3396         estimate D2E/DX2                !
 ! A24   A(22,7,48)            106.7755         estimate D2E/DX2                !
 ! A25   A(8,10,9)             120.5529         estimate D2E/DX2                !
 ! A26   A(8,10,11)            108.8853         estimate D2E/DX2                !
 ! A27   A(8,10,12)            106.2857         estimate D2E/DX2                !
 ! A28   A(9,10,11)            112.5324         estimate D2E/DX2                !
 ! A29   A(9,10,12)            108.1008         estimate D2E/DX2                !
 ! A30   A(11,10,12)            97.8604         estimate D2E/DX2                !
 ! A31   A(7,11,10)            114.0425         estimate D2E/DX2                !
 ! A32   A(7,11,49)            113.5542         estimate D2E/DX2                !
 ! A33   A(10,11,49)           110.65           estimate D2E/DX2                !
 ! A34   A(5,12,10)            117.0315         estimate D2E/DX2                !
 ! A35   A(14,13,19)           120.2022         estimate D2E/DX2                !
 ! A36   A(14,13,50)           120.9376         estimate D2E/DX2                !
 ! A37   A(19,13,50)           118.8554         estimate D2E/DX2                !
 ! A38   A(13,14,15)           120.0057         estimate D2E/DX2                !
 ! A39   A(13,14,51)           119.8084         estimate D2E/DX2                !
 ! A40   A(15,14,51)           120.1837         estimate D2E/DX2                !
 ! A41   A(14,15,16)           119.8684         estimate D2E/DX2                !
 ! A42   A(14,15,52)           120.1265         estimate D2E/DX2                !
 ! A43   A(16,15,52)           120.0052         estimate D2E/DX2                !
 ! A44   A(15,16,17)           120.1152         estimate D2E/DX2                !
 ! A45   A(15,16,53)           120.06           estimate D2E/DX2                !
 ! A46   A(17,16,53)           119.8247         estimate D2E/DX2                !
 ! A47   A(16,17,19)           120.0259         estimate D2E/DX2                !
 ! A48   A(16,17,54)           120.3754         estimate D2E/DX2                !
 ! A49   A(19,17,54)           119.5977         estimate D2E/DX2                !
 ! A50   A(13,19,17)           119.7819         estimate D2E/DX2                !
 ! A51   A(13,19,20)           117.7886         estimate D2E/DX2                !
 ! A52   A(17,19,20)           122.4284         estimate D2E/DX2                !
 ! A53   A(18,20,19)           122.6652         estimate D2E/DX2                !
 ! A54   A(18,20,21)           116.9066         estimate D2E/DX2                !
 ! A55   A(19,20,21)           110.2165         estimate D2E/DX2                !
 ! A56   A(20,21,22)           113.5942         estimate D2E/DX2                !
 ! A57   A(7,22,21)            117.4809         estimate D2E/DX2                !
 ! A58   A(7,22,23)            121.6779         estimate D2E/DX2                !
 ! A59   A(21,22,23)           120.6809         estimate D2E/DX2                !
 ! A60   A(22,23,25)           107.2613         estimate D2E/DX2                !
 ! A61   A(28,24,29)           121.9215         estimate D2E/DX2                !
 ! A62   A(28,24,33)           117.7591         estimate D2E/DX2                !
 ! A63   A(29,24,33)           120.3176         estimate D2E/DX2                !
 ! A64   A(23,25,28)           116.6709         estimate D2E/DX2                !
 ! A65   A(28,26,34)           121.1244         estimate D2E/DX2                !
 ! A66   A(28,26,38)           118.5626         estimate D2E/DX2                !
 ! A67   A(34,26,38)           120.2638         estimate D2E/DX2                !
 ! A68   A(28,27,39)           119.4115         estimate D2E/DX2                !
 ! A69   A(28,27,43)           120.5498         estimate D2E/DX2                !
 ! A70   A(39,27,43)           120.0265         estimate D2E/DX2                !
 ! A71   A(24,28,25)           113.6474         estimate D2E/DX2                !
 ! A72   A(24,28,26)           110.0236         estimate D2E/DX2                !
 ! A73   A(24,28,27)           107.3489         estimate D2E/DX2                !
 ! A74   A(25,28,26)           105.0115         estimate D2E/DX2                !
 ! A75   A(25,28,27)           113.1862         estimate D2E/DX2                !
 ! A76   A(26,28,27)           107.4483         estimate D2E/DX2                !
 ! A77   A(24,29,30)           119.7304         estimate D2E/DX2                !
 ! A78   A(24,29,55)           120.5686         estimate D2E/DX2                !
 ! A79   A(30,29,55)           119.6999         estimate D2E/DX2                !
 ! A80   A(29,30,31)           120.0123         estimate D2E/DX2                !
 ! A81   A(29,30,56)           119.7814         estimate D2E/DX2                !
 ! A82   A(31,30,56)           120.2056         estimate D2E/DX2                !
 ! A83   A(30,31,32)           120.2586         estimate D2E/DX2                !
 ! A84   A(30,31,57)           119.8348         estimate D2E/DX2                !
 ! A85   A(32,31,57)           119.9061         estimate D2E/DX2                !
 ! A86   A(31,32,33)           120.181          estimate D2E/DX2                !
 ! A87   A(31,32,58)           120.129          estimate D2E/DX2                !
 ! A88   A(33,32,58)           119.6897         estimate D2E/DX2                !
 ! A89   A(24,33,32)           119.4978         estimate D2E/DX2                !
 ! A90   A(24,33,59)           119.8411         estimate D2E/DX2                !
 ! A91   A(32,33,59)           120.6587         estimate D2E/DX2                !
 ! A92   A(26,34,35)           119.6412         estimate D2E/DX2                !
 ! A93   A(26,34,60)           120.4051         estimate D2E/DX2                !
 ! A94   A(35,34,60)           119.953          estimate D2E/DX2                !
 ! A95   A(34,35,36)           120.0528         estimate D2E/DX2                !
 ! A96   A(34,35,61)           119.7012         estimate D2E/DX2                !
 ! A97   A(36,35,61)           120.2459         estimate D2E/DX2                !
 ! A98   A(35,36,37)           120.3085         estimate D2E/DX2                !
 ! A99   A(35,36,62)           119.8578         estimate D2E/DX2                !
 ! A100  A(37,36,62)           119.8333         estimate D2E/DX2                !
 ! A101  A(36,37,38)           119.9672         estimate D2E/DX2                !
 ! A102  A(36,37,63)           120.2624         estimate D2E/DX2                !
 ! A103  A(38,37,63)           119.7662         estimate D2E/DX2                !
 ! A104  A(26,38,37)           119.7662         estimate D2E/DX2                !
 ! A105  A(26,38,64)           120.329          estimate D2E/DX2                !
 ! A106  A(37,38,64)           119.9018         estimate D2E/DX2                !
 ! A107  A(27,39,40)           119.716          estimate D2E/DX2                !
 ! A108  A(27,39,65)           119.8916         estimate D2E/DX2                !
 ! A109  A(40,39,65)           120.3923         estimate D2E/DX2                !
 ! A110  A(39,40,41)           120.1858         estimate D2E/DX2                !
 ! A111  A(39,40,66)           119.6897         estimate D2E/DX2                !
 ! A112  A(41,40,66)           120.1245         estimate D2E/DX2                !
 ! A113  A(40,41,42)           120.1785         estimate D2E/DX2                !
 ! A114  A(40,41,67)           119.9341         estimate D2E/DX2                !
 ! A115  A(42,41,67)           119.8872         estimate D2E/DX2                !
 ! A116  A(41,42,43)           120.0005         estimate D2E/DX2                !
 ! A117  A(41,42,68)           120.246          estimate D2E/DX2                !
 ! A118  A(43,42,68)           119.7526         estimate D2E/DX2                !
 ! A119  A(27,43,42)           119.8921         estimate D2E/DX2                !
 ! A120  A(27,43,69)           120.3973         estimate D2E/DX2                !
 ! A121  A(42,43,69)           119.7088         estimate D2E/DX2                !
 ! D1    D(6,1,2,3)             -0.4522         estimate D2E/DX2                !
 ! D2    D(6,1,2,45)           179.4927         estimate D2E/DX2                !
 ! D3    D(44,1,2,3)          -179.8528         estimate D2E/DX2                !
 ! D4    D(44,1,2,45)            0.0921         estimate D2E/DX2                !
 ! D5    D(2,1,6,5)              1.3254         estimate D2E/DX2                !
 ! D6    D(2,1,6,7)            179.457          estimate D2E/DX2                !
 ! D7    D(44,1,6,5)          -179.2661         estimate D2E/DX2                !
 ! D8    D(44,1,6,7)            -1.1346         estimate D2E/DX2                !
 ! D9    D(1,2,3,4)             -0.5368         estimate D2E/DX2                !
 ! D10   D(1,2,3,46)           179.8315         estimate D2E/DX2                !
 ! D11   D(45,2,3,4)           179.5186         estimate D2E/DX2                !
 ! D12   D(45,2,3,46)           -0.1131         estimate D2E/DX2                !
 ! D13   D(2,3,4,5)              0.6003         estimate D2E/DX2                !
 ! D14   D(2,3,4,47)          -179.3986         estimate D2E/DX2                !
 ! D15   D(46,3,4,5)          -179.765          estimate D2E/DX2                !
 ! D16   D(46,3,4,47)            0.2361         estimate D2E/DX2                !
 ! D17   D(3,4,5,6)              0.3234         estimate D2E/DX2                !
 ! D18   D(3,4,5,12)           178.4877         estimate D2E/DX2                !
 ! D19   D(47,4,5,6)          -179.6778         estimate D2E/DX2                !
 ! D20   D(47,4,5,12)           -1.5134         estimate D2E/DX2                !
 ! D21   D(4,5,6,1)             -1.2688         estimate D2E/DX2                !
 ! D22   D(4,5,6,7)           -179.3385         estimate D2E/DX2                !
 ! D23   D(12,5,6,1)          -179.3087         estimate D2E/DX2                !
 ! D24   D(12,5,6,7)             2.6216         estimate D2E/DX2                !
 ! D25   D(4,5,12,10)          156.4613         estimate D2E/DX2                !
 ! D26   D(6,5,12,10)          -25.3767         estimate D2E/DX2                !
 ! D27   D(1,6,7,11)           166.4678         estimate D2E/DX2                !
 ! D28   D(1,6,7,22)            46.3083         estimate D2E/DX2                !
 ! D29   D(1,6,7,48)           -71.2278         estimate D2E/DX2                !
 ! D30   D(5,6,7,11)           -15.501          estimate D2E/DX2                !
 ! D31   D(5,6,7,22)          -135.6605         estimate D2E/DX2                !
 ! D32   D(5,6,7,48)           106.8033         estimate D2E/DX2                !
 ! D33   D(6,7,11,10)           50.8862         estimate D2E/DX2                !
 ! D34   D(6,7,11,49)          178.8918         estimate D2E/DX2                !
 ! D35   D(22,7,11,10)         172.4741         estimate D2E/DX2                !
 ! D36   D(22,7,11,49)         -59.5203         estimate D2E/DX2                !
 ! D37   D(48,7,11,10)         -70.1815         estimate D2E/DX2                !
 ! D38   D(48,7,11,49)          57.8241         estimate D2E/DX2                !
 ! D39   D(6,7,22,21)           62.2218         estimate D2E/DX2                !
 ! D40   D(6,7,22,23)         -113.2045         estimate D2E/DX2                !
 ! D41   D(11,7,22,21)         -58.514          estimate D2E/DX2                !
 ! D42   D(11,7,22,23)         126.0597         estimate D2E/DX2                !
 ! D43   D(48,7,22,21)        -178.7296         estimate D2E/DX2                !
 ! D44   D(48,7,22,23)           5.8441         estimate D2E/DX2                !
 ! D45   D(8,10,11,7)         -176.979          estimate D2E/DX2                !
 ! D46   D(8,10,11,49)          53.5451         estimate D2E/DX2                !
 ! D47   D(9,10,11,7)           46.6699         estimate D2E/DX2                !
 ! D48   D(9,10,11,49)         -82.8059         estimate D2E/DX2                !
 ! D49   D(12,10,11,7)         -66.7105         estimate D2E/DX2                !
 ! D50   D(12,10,11,49)        163.8137         estimate D2E/DX2                !
 ! D51   D(8,10,12,5)          164.0913         estimate D2E/DX2                !
 ! D52   D(9,10,12,5)          -65.167          estimate D2E/DX2                !
 ! D53   D(11,10,12,5)          51.712          estimate D2E/DX2                !
 ! D54   D(19,13,14,15)         -0.0705         estimate D2E/DX2                !
 ! D55   D(19,13,14,51)       -179.5399         estimate D2E/DX2                !
 ! D56   D(50,13,14,15)        179.118          estimate D2E/DX2                !
 ! D57   D(50,13,14,51)         -0.3514         estimate D2E/DX2                !
 ! D58   D(14,13,19,17)         -0.1815         estimate D2E/DX2                !
 ! D59   D(14,13,19,20)        179.4415         estimate D2E/DX2                !
 ! D60   D(50,13,19,17)       -179.3868         estimate D2E/DX2                !
 ! D61   D(50,13,19,20)          0.2362         estimate D2E/DX2                !
 ! D62   D(13,14,15,16)          0.1845         estimate D2E/DX2                !
 ! D63   D(13,14,15,52)       -179.8039         estimate D2E/DX2                !
 ! D64   D(51,14,15,16)        179.6519         estimate D2E/DX2                !
 ! D65   D(51,14,15,52)         -0.3365         estimate D2E/DX2                !
 ! D66   D(14,15,16,17)         -0.0461         estimate D2E/DX2                !
 ! D67   D(14,15,16,53)        179.8496         estimate D2E/DX2                !
 ! D68   D(52,15,16,17)        179.9424         estimate D2E/DX2                !
 ! D69   D(52,15,16,53)         -0.1619         estimate D2E/DX2                !
 ! D70   D(15,16,17,19)         -0.2063         estimate D2E/DX2                !
 ! D71   D(15,16,17,54)       -179.8296         estimate D2E/DX2                !
 ! D72   D(53,16,17,19)        179.8977         estimate D2E/DX2                !
 ! D73   D(53,16,17,54)          0.2744         estimate D2E/DX2                !
 ! D74   D(16,17,19,13)          0.3197         estimate D2E/DX2                !
 ! D75   D(16,17,19,20)       -179.2851         estimate D2E/DX2                !
 ! D76   D(54,17,19,13)        179.9459         estimate D2E/DX2                !
 ! D77   D(54,17,19,20)          0.3411         estimate D2E/DX2                !
 ! D78   D(13,19,20,18)          2.9015         estimate D2E/DX2                !
 ! D79   D(13,19,20,21)        146.8947         estimate D2E/DX2                !
 ! D80   D(17,19,20,18)       -177.4862         estimate D2E/DX2                !
 ! D81   D(17,19,20,21)        -33.493          estimate D2E/DX2                !
 ! D82   D(18,20,21,22)        -86.0168         estimate D2E/DX2                !
 ! D83   D(19,20,21,22)        127.6926         estimate D2E/DX2                !
 ! D84   D(20,21,22,7)         162.3373         estimate D2E/DX2                !
 ! D85   D(20,21,22,23)        -22.1884         estimate D2E/DX2                !
 ! D86   D(7,22,23,25)         173.1818         estimate D2E/DX2                !
 ! D87   D(21,22,23,25)         -2.0999         estimate D2E/DX2                !
 ! D88   D(22,23,25,28)        161.1978         estimate D2E/DX2                !
 ! D89   D(29,24,28,25)        150.3982         estimate D2E/DX2                !
 ! D90   D(29,24,28,26)        -92.1808         estimate D2E/DX2                !
 ! D91   D(29,24,28,27)         24.4474         estimate D2E/DX2                !
 ! D92   D(33,24,28,25)        -30.0765         estimate D2E/DX2                !
 ! D93   D(33,24,28,26)         87.3446         estimate D2E/DX2                !
 ! D94   D(33,24,28,27)       -156.0273         estimate D2E/DX2                !
 ! D95   D(28,24,29,30)        178.9519         estimate D2E/DX2                !
 ! D96   D(28,24,29,55)         -1.4254         estimate D2E/DX2                !
 ! D97   D(33,24,29,30)         -0.5615         estimate D2E/DX2                !
 ! D98   D(33,24,29,55)        179.0612         estimate D2E/DX2                !
 ! D99   D(28,24,33,32)       -178.9766         estimate D2E/DX2                !
 ! D100  D(28,24,33,59)          0.4541         estimate D2E/DX2                !
 ! D101  D(29,24,33,32)          0.5567         estimate D2E/DX2                !
 ! D102  D(29,24,33,59)        179.9873         estimate D2E/DX2                !
 ! D103  D(23,25,28,24)        -54.7713         estimate D2E/DX2                !
 ! D104  D(23,25,28,26)       -175.0644         estimate D2E/DX2                !
 ! D105  D(23,25,28,27)         68.0265         estimate D2E/DX2                !
 ! D106  D(34,26,28,24)        -15.3543         estimate D2E/DX2                !
 ! D107  D(34,26,28,25)        107.3107         estimate D2E/DX2                !
 ! D108  D(34,26,28,27)       -131.9202         estimate D2E/DX2                !
 ! D109  D(38,26,28,24)        167.1927         estimate D2E/DX2                !
 ! D110  D(38,26,28,25)        -70.1422         estimate D2E/DX2                !
 ! D111  D(38,26,28,27)         50.6268         estimate D2E/DX2                !
 ! D112  D(28,26,34,35)       -177.4377         estimate D2E/DX2                !
 ! D113  D(28,26,34,60)          2.2766         estimate D2E/DX2                !
 ! D114  D(38,26,34,35)         -0.0278         estimate D2E/DX2                !
 ! D115  D(38,26,34,60)        179.6865         estimate D2E/DX2                !
 ! D116  D(28,26,38,37)        177.6224         estimate D2E/DX2                !
 ! D117  D(28,26,38,64)         -1.7377         estimate D2E/DX2                !
 ! D118  D(34,26,38,37)          0.1469         estimate D2E/DX2                !
 ! D119  D(34,26,38,64)       -179.2133         estimate D2E/DX2                !
 ! D120  D(39,27,28,24)         93.643          estimate D2E/DX2                !
 ! D121  D(39,27,28,25)        -32.5819         estimate D2E/DX2                !
 ! D122  D(39,27,28,26)       -148.0486         estimate D2E/DX2                !
 ! D123  D(43,27,28,24)        -85.0847         estimate D2E/DX2                !
 ! D124  D(43,27,28,25)        148.6904         estimate D2E/DX2                !
 ! D125  D(43,27,28,26)         33.2238         estimate D2E/DX2                !
 ! D126  D(28,27,39,40)       -178.7344         estimate D2E/DX2                !
 ! D127  D(28,27,39,65)          1.4045         estimate D2E/DX2                !
 ! D128  D(43,27,39,40)          0.0            estimate D2E/DX2                !
 ! D129  D(43,27,39,65)       -179.8611         estimate D2E/DX2                !
 ! D130  D(28,27,43,42)        178.5116         estimate D2E/DX2                !
 ! D131  D(28,27,43,69)         -1.9659         estimate D2E/DX2                !
 ! D132  D(39,27,43,42)         -0.2082         estimate D2E/DX2                !
 ! D133  D(39,27,43,69)        179.3143         estimate D2E/DX2                !
 ! D134  D(24,29,30,31)          0.2685         estimate D2E/DX2                !
 ! D135  D(24,29,30,56)        179.9496         estimate D2E/DX2                !
 ! D136  D(55,29,30,31)       -179.3575         estimate D2E/DX2                !
 ! D137  D(55,29,30,56)          0.3236         estimate D2E/DX2                !
 ! D138  D(29,30,31,32)          0.0257         estimate D2E/DX2                !
 ! D139  D(29,30,31,57)        179.7684         estimate D2E/DX2                !
 ! D140  D(56,30,31,32)       -179.654          estimate D2E/DX2                !
 ! D141  D(56,30,31,57)          0.0887         estimate D2E/DX2                !
 ! D142  D(30,31,32,33)         -0.0294         estimate D2E/DX2                !
 ! D143  D(30,31,32,58)        179.7582         estimate D2E/DX2                !
 ! D144  D(57,31,32,33)       -179.7719         estimate D2E/DX2                !
 ! D145  D(57,31,32,58)          0.0157         estimate D2E/DX2                !
 ! D146  D(31,32,33,24)         -0.2605         estimate D2E/DX2                !
 ! D147  D(31,32,33,59)       -179.6863         estimate D2E/DX2                !
 ! D148  D(58,32,33,24)        179.951          estimate D2E/DX2                !
 ! D149  D(58,32,33,59)          0.5251         estimate D2E/DX2                !
 ! D150  D(26,34,35,36)         -0.1455         estimate D2E/DX2                !
 ! D151  D(26,34,35,61)        179.9017         estimate D2E/DX2                !
 ! D152  D(60,34,35,36)       -179.8611         estimate D2E/DX2                !
 ! D153  D(60,34,35,61)          0.1861         estimate D2E/DX2                !
 ! D154  D(34,35,36,37)          0.2007         estimate D2E/DX2                !
 ! D155  D(34,35,36,62)        179.9648         estimate D2E/DX2                !
 ! D156  D(61,35,36,37)       -179.8467         estimate D2E/DX2                !
 ! D157  D(61,35,36,62)         -0.0826         estimate D2E/DX2                !
 ! D158  D(35,36,37,38)         -0.0808         estimate D2E/DX2                !
 ! D159  D(35,36,37,63)        179.1744         estimate D2E/DX2                !
 ! D160  D(62,36,37,38)       -179.845          estimate D2E/DX2                !
 ! D161  D(62,36,37,63)         -0.5898         estimate D2E/DX2                !
 ! D162  D(36,37,38,26)         -0.0924         estimate D2E/DX2                !
 ! D163  D(36,37,38,64)        179.2705         estimate D2E/DX2                !
 ! D164  D(63,37,38,26)       -179.3513         estimate D2E/DX2                !
 ! D165  D(63,37,38,64)          0.0116         estimate D2E/DX2                !
 ! D166  D(27,39,40,41)          0.1846         estimate D2E/DX2                !
 ! D167  D(27,39,40,66)       -179.755          estimate D2E/DX2                !
 ! D168  D(65,39,40,41)       -179.955          estimate D2E/DX2                !
 ! D169  D(65,39,40,66)          0.1053         estimate D2E/DX2                !
 ! D170  D(39,40,41,42)         -0.1617         estimate D2E/DX2                !
 ! D171  D(39,40,41,67)       -179.9718         estimate D2E/DX2                !
 ! D172  D(66,40,41,42)        179.7777         estimate D2E/DX2                !
 ! D173  D(66,40,41,67)         -0.0324         estimate D2E/DX2                !
 ! D174  D(40,41,42,43)         -0.0478         estimate D2E/DX2                !
 ! D175  D(40,41,42,68)       -179.7113         estimate D2E/DX2                !
 ! D176  D(67,41,42,43)        179.7624         estimate D2E/DX2                !
 ! D177  D(67,41,42,68)          0.0989         estimate D2E/DX2                !
 ! D178  D(41,42,43,27)          0.2318         estimate D2E/DX2                !
 ! D179  D(41,42,43,69)       -179.294          estimate D2E/DX2                !
 ! D180  D(68,42,43,27)        179.8971         estimate D2E/DX2                !
 ! D181  D(68,42,43,69)          0.3713         estimate D2E/DX2                !
 --------------------------------------------------------------------------------
 Stoichiometry    C33H26N3O5PS
 Framework group  C1[X(C33H26N3O5PS)]
 Deg. of freedom   201
 Full point group                 C1      NOp   1
 Largest Abelian subgroup         C1      NOp   1
 Largest concise Abelian subgroup C1      NOp   1
                         Standard orientation:                         
 ---------------------------------------------------------------------
 Center     Atomic      Atomic             Coordinates (Angstroms)
 Number     Number       Type             X           Y           Z
 ---------------------------------------------------------------------
      1          6           0        3.123031    0.918198    2.037192
      2          6           0        3.833284    1.853951    2.776935
      3          6           0        5.141696    2.174492    2.418046
      4          6           0        5.735752    1.550210    1.329612
      5          6           0        5.005993    0.618465    0.603408
      6          6           0        3.691193    0.291568    0.925922
      7          6           0        2.884028   -0.738967    0.147280
      8          8           0        5.698060   -1.563151   -2.329511
      9          8           0        5.414751   -2.353002    0.035855
     10         16           0        5.150746   -1.383753   -1.009245
     11          7           0        3.544699   -1.016312   -1.141289
     12          8           0        5.666706    0.060737   -0.496851
     13          6           0       -1.323224    3.029355   -2.018581
     14          6           0       -1.837281    4.297070   -1.762180
     15          6           0       -1.516799    4.951259   -0.576439
     16          6           0       -0.676717    4.335335    0.351837
     17          6           0       -0.161234    3.070698    0.094301
     18          8           0       -0.218695    0.475268   -2.476611
     19          6           0       -0.486715    2.412281   -1.092345
     20          6           0        0.027202    1.038121   -1.418699
     21          8           0        1.368488    0.857557   -0.870254
     22          6           0        1.497258   -0.244630   -0.121246
     23          7           0        0.472531   -0.794486    0.413034
     24          6           0       -2.247782   -2.259529   -0.696365
     25          7           0       -0.630222   -0.012556    0.090542
     26          6           0       -3.257803    0.502783   -0.393380
     27          6           0       -2.546947   -1.070573    1.952012
     28         15           0       -2.091031   -0.715366    0.233680
     29          6           0       -3.093922   -3.291711   -0.278666
     30          6           0       -3.195842   -4.450825   -1.040316
     31          6           0       -2.452441   -4.582849   -2.211561
     32          6           0       -1.604861   -3.557155   -2.624460
     33          6           0       -1.495715   -2.393298   -1.869614
     34          6           0       -3.886583    0.330946   -1.627133
     35          6           0       -4.742926    1.318170   -2.106907
     36          6           0       -4.971058    2.467681   -1.356558
     37          6           0       -4.342086    2.639908   -0.124599
     38          6           0       -3.485122    1.661201    0.359089
     39          6           0       -1.547594   -1.400547    2.873812
     40          6           0       -1.893022   -1.700092    4.187711
     41          6           0       -3.228447   -1.675621    4.583896
     42          6           0       -4.224852   -1.347790    3.667379
     43          6           0       -3.887553   -1.042686    2.352556
     44          1           0        2.102128    0.667718    2.312691
     45          1           0        3.366973    2.332984    3.631179
     46          1           0        5.703944    2.906449    2.988211
     47          1           0        6.754630    1.770532    1.031031
     48          1           0        2.784130   -1.651090    0.749329
     49          1           0        3.061964   -1.713742   -1.704139
     50          1           0       -1.574452    2.499881   -2.931254
     51          1           0       -2.495108    4.769272   -2.485655
     52          1           0       -1.919431    5.939299   -0.372909
     53          1           0       -0.422604    4.844070    1.277129
     54          1           0        0.490289    2.586608    0.814511
     55          1           0       -3.667456   -3.198526    0.638434
     56          1           0       -3.851598   -5.252687   -0.716513
     57          1           0       -2.531371   -5.490582   -2.802004
     58          1           0       -1.023822   -3.663833   -3.535038
     59          1           0       -0.839745   -1.584950   -2.187613
     60          1           0       -3.708060   -0.563931   -2.214731
     61          1           0       -5.231189    1.186265   -3.067000
     62          1           0       -5.639042    3.235811   -1.734007
     63          1           0       -4.510051    3.542311    0.453576
     64          1           0       -2.986655    1.801754    1.313118
     65          1           0       -0.508227   -1.419309    2.561319
     66          1           0       -1.117056   -1.952123    4.903430
     67          1           0       -3.493353   -1.909612    5.610333
     68          1           0       -5.265015   -1.323834    3.975965
     69          1           0       -4.667282   -0.776480    1.644660
 ---------------------------------------------------------------------
 Rotational constants (GHZ):           0.1031238           0.0559817           0.0504958
 Electric field and nuclear coordinate derivatives read from checkpoint file.
 Rotating derivatives to standard orientation.
 Full mass-weighted force constant matrix:
 Low frequencies --- -174.5883   -2.1598   -0.0050    0.0069    0.0212    3.4310
 Low frequencies ---    4.9876   15.2140   18.4394
 ******    1 imaginary frequencies (negative Signs) ****** 
 Diagonal vibrational polarizability:
      183.7913879     207.6640516     215.6571718
 Harmonic frequencies (cm**-1), IR intensities (KM/Mole), Raman scattering
 activities (A**4/AMU), depolarization ratios for plane and unpolarized
 incident light, reduced masses (AMU), force constants (mDyne/A),
 and normal coordinates:
                      1                      2                      3
                      A                      A                      A
 Frequencies --   -174.5867                14.9937                18.2815
 Red. masses --     10.2555                 6.4180                 6.6923
 Frc consts  --      0.1842                 0.0009                 0.0013
 IR Inten    --    139.3242                 0.1878                 0.5380
  Atom  AN      X      Y      Z        X      Y      Z        X      Y      Z
     1   6    -0.02   0.01  -0.02     0.08   0.03  -0.01     0.02   0.15  -0.07
     2   6    -0.01  -0.01  -0.01     0.13   0.02  -0.04     0.03   0.22  -0.16
     3   6    -0.01  -0.01   0.00     0.13  -0.02  -0.07     0.02   0.21  -0.21
     4   6    -0.01  -0.01  -0.00     0.09  -0.05  -0.08     0.01   0.12  -0.16
     5   6    -0.02   0.00  -0.01     0.04  -0.03  -0.06     0.00   0.05  -0.07
     6   6    -0.02   0.01  -0.02     0.04   0.01  -0.02     0.01   0.07  -0.03
     7   6    -0.03   0.02  -0.03    -0.01   0.02   0.01     0.00   0.01   0.06
     8   8     0.00  -0.00  -0.00    -0.10  -0.07  -0.06    -0.02  -0.19   0.10
     9   8    -0.01   0.00  -0.00    -0.06  -0.05  -0.05     0.00   0.01   0.17
    10  16    -0.01   0.00  -0.01    -0.06  -0.05  -0.05    -0.01  -0.08   0.09
    11   7    -0.01   0.00  -0.02    -0.05  -0.00  -0.00    -0.01  -0.09   0.07
    12   8    -0.01   0.00  -0.01    -0.00  -0.06  -0.07    -0.01  -0.03  -0.04
    13   6     0.03   0.08  -0.08    -0.01   0.05   0.07     0.01   0.00   0.03
    14   6    -0.06   0.02   0.01    -0.03   0.04   0.09     0.02   0.00   0.03
    15   6    -0.06  -0.02   0.03    -0.06   0.02   0.11     0.03   0.00   0.03
    16   6    -0.00  -0.02  -0.01    -0.07   0.01   0.11     0.03  -0.00   0.03
    17   6     0.11   0.05  -0.11    -0.05   0.02   0.10     0.02  -0.01   0.02
    18   8     0.25   0.11  -0.15     0.00   0.06   0.05     0.01   0.00   0.01
    19   6     0.15   0.11  -0.16    -0.02   0.04   0.08     0.01  -0.00   0.02
    20   6     0.39   0.30  -0.34    -0.00   0.05   0.06     0.01  -0.01   0.02
    21   8     0.02   0.08  -0.02    -0.01   0.05   0.07     0.01  -0.01   0.02
    22   6    -0.04  -0.02  -0.04    -0.01   0.04   0.05     0.00  -0.00   0.04
    23   7    -0.01  -0.01   0.01    -0.01   0.03   0.04    -0.00   0.00   0.03
    24   6    -0.04  -0.03   0.03     0.06  -0.00   0.02    -0.01   0.01  -0.04
    25   7    -0.09  -0.10   0.22    -0.01   0.03   0.05    -0.00  -0.01   0.01
    26   6     0.00  -0.03   0.04    -0.00  -0.02  -0.04     0.00   0.01   0.02
    27   6    -0.13  -0.10   0.05    -0.05   0.02   0.00    -0.01  -0.05  -0.01
    28  15    -0.03  -0.06   0.09    -0.00   0.01   0.01    -0.00  -0.01  -0.01
    29   6    -0.03  -0.04  -0.01     0.08  -0.02   0.01    -0.02   0.01  -0.06
    30   6    -0.01  -0.03  -0.02     0.13  -0.03   0.02    -0.03   0.03  -0.08
    31   6     0.00  -0.01  -0.02     0.17  -0.02   0.04    -0.02   0.04  -0.08
    32   6    -0.00   0.01   0.01     0.15  -0.00   0.05    -0.01   0.04  -0.06
    33   6    -0.02  -0.01   0.04     0.09   0.01   0.04    -0.00   0.02  -0.03
    34   6     0.01  -0.02   0.04     0.08  -0.02  -0.08    -0.02   0.02   0.03
    35   6     0.02  -0.02   0.02     0.08  -0.04  -0.12    -0.02   0.03   0.05
    36   6     0.02  -0.01   0.01     0.00  -0.05  -0.13     0.00   0.03   0.07
    37   6     0.02  -0.01   0.01    -0.08  -0.05  -0.09     0.03   0.01   0.06
    38   6     0.01  -0.01   0.02    -0.08  -0.03  -0.04     0.03   0.00   0.03
    39   6    -0.09  -0.05   0.03    -0.07   0.06   0.04    -0.02  -0.09  -0.02
    40   6    -0.04  -0.02   0.04    -0.09   0.07   0.03    -0.03  -0.12  -0.03
    41   6    -0.04  -0.01   0.08    -0.11   0.04  -0.01    -0.03  -0.12  -0.04
    42   6    -0.06  -0.03   0.10    -0.09  -0.01  -0.04    -0.02  -0.08  -0.03
    43   6    -0.11  -0.07   0.08    -0.06  -0.02  -0.04    -0.01  -0.04  -0.02
    44   1    -0.02   0.01  -0.02     0.08   0.07   0.02     0.03   0.16  -0.03
    45   1    -0.01  -0.01  -0.00     0.17   0.04  -0.03     0.03   0.29  -0.19
    46   1    -0.01  -0.02   0.01     0.17  -0.03  -0.09     0.02   0.26  -0.28
    47   1    -0.01  -0.02   0.00     0.08  -0.08  -0.11    -0.00   0.11  -0.20
    48   1    -0.03   0.02  -0.03    -0.01   0.03   0.02     0.00   0.06   0.13
    49   1     0.00  -0.01  -0.01    -0.09   0.01   0.01    -0.01  -0.14   0.14
    50   1     0.05   0.12  -0.11     0.01   0.07   0.06     0.01   0.00   0.03
    51   1    -0.11   0.01   0.06    -0.02   0.05   0.09     0.02   0.01   0.03
    52   1    -0.11  -0.06   0.09    -0.07   0.01   0.12     0.03   0.00   0.03
    53   1    -0.03  -0.06   0.01    -0.09  -0.00   0.13     0.03  -0.01   0.03
    54   1     0.16   0.05  -0.16    -0.06   0.02   0.10     0.02  -0.01   0.02
    55   1    -0.05  -0.06  -0.01     0.05  -0.03  -0.01    -0.03  -0.00  -0.06
    56   1    -0.01  -0.05  -0.04     0.15  -0.05   0.01    -0.04   0.03  -0.10
    57   1     0.02   0.00  -0.03     0.21  -0.03   0.05    -0.03   0.05  -0.10
    58   1     0.01   0.03   0.02     0.17   0.00   0.07    -0.01   0.05  -0.05
    59   1    -0.01  -0.01   0.06     0.07   0.02   0.05     0.01   0.02  -0.01
    60   1    -0.01  -0.03   0.05     0.14  -0.01  -0.08    -0.04   0.02   0.02
    61   1     0.02  -0.02   0.02     0.14  -0.05  -0.15    -0.04   0.05   0.06
    62   1     0.03  -0.01  -0.00     0.01  -0.07  -0.16     0.00   0.04   0.09
    63   1     0.03  -0.00  -0.00    -0.13  -0.06  -0.09     0.05   0.01   0.07
    64   1     0.00  -0.01   0.02    -0.14  -0.02  -0.01     0.05  -0.01   0.02
    65   1    -0.10  -0.04  -0.00    -0.06   0.09   0.07    -0.01  -0.09  -0.02
    66   1    -0.03   0.01   0.03    -0.11   0.10   0.06    -0.03  -0.16  -0.04
    67   1    -0.01   0.02   0.09    -0.13   0.04  -0.01    -0.03  -0.15  -0.04
    68   1    -0.05  -0.01   0.14    -0.10  -0.03  -0.07    -0.02  -0.07  -0.03
    69   1    -0.12  -0.09   0.09    -0.05  -0.05  -0.06    -0.00  -0.01  -0.01
                      4                      5                      6
                      A                      A                      A
 Frequencies --     22.8769                29.4697                33.1299
 Red. masses --      6.1377                 5.5318                 4.9783
 Frc consts  --      0.0019                 0.0028                 0.0032
 IR Inten    --      0.1395                 0.2704                 0.4604
  Atom  AN      X      Y      Z        X      Y      Z        X      Y      Z
     1   6    -0.05  -0.05  -0.01    -0.05   0.06  -0.07     0.06   0.00   0.03
     2   6    -0.10  -0.01  -0.03    -0.06   0.05  -0.05     0.08  -0.00   0.02
     3   6    -0.13   0.08  -0.07    -0.03  -0.00   0.01     0.07   0.00  -0.00
     4   6    -0.11   0.12  -0.08     0.01  -0.05   0.05     0.04   0.01  -0.02
     5   6    -0.06   0.06  -0.05     0.02  -0.04   0.04     0.03   0.01  -0.01
     6   6    -0.03  -0.02  -0.03    -0.01   0.01  -0.03     0.04   0.01   0.02
     7   6     0.00  -0.06  -0.02     0.00   0.02  -0.05     0.03   0.01   0.03
     8   8     0.03   0.06  -0.03     0.08  -0.08   0.08    -0.02   0.03  -0.03
     9   8     0.12   0.09  -0.00    -0.08  -0.07   0.06     0.05   0.02  -0.03
    10  16     0.04   0.05  -0.02     0.02  -0.06   0.05     0.01   0.02  -0.02
    11   7     0.01  -0.06  -0.01     0.04   0.02  -0.03     0.00   0.01   0.02
    12   8    -0.05   0.10  -0.07     0.06  -0.08   0.08     0.01   0.02  -0.03
    13   6     0.04   0.02   0.09    -0.07   0.02   0.05    -0.03  -0.09  -0.04
    14   6     0.08   0.03   0.14    -0.09  -0.01   0.10    -0.07  -0.10  -0.08
    15   6     0.13  -0.02   0.15    -0.07  -0.03   0.11    -0.12  -0.06  -0.09
    16   6     0.14  -0.07   0.11    -0.02  -0.03   0.06    -0.12  -0.01  -0.06
    17   6     0.10  -0.08   0.06     0.00  -0.01   0.01    -0.08  -0.00  -0.01
    18   8    -0.05  -0.01  -0.01    -0.01   0.05  -0.06     0.06  -0.06   0.04
    19   6     0.04  -0.03   0.05    -0.02   0.01   0.00    -0.03  -0.04  -0.01
    20   6    -0.00  -0.04  -0.00    -0.00   0.03  -0.05     0.02  -0.03   0.04
    21   8     0.00  -0.09  -0.04    -0.00   0.01  -0.06     0.01   0.01   0.07
    22   6    -0.00  -0.08  -0.03     0.00   0.01  -0.07     0.02  -0.00   0.05
    23   7    -0.00  -0.06  -0.01     0.01  -0.00  -0.07     0.02  -0.02   0.03
    24   6    -0.03  -0.03   0.02    -0.01  -0.00  -0.03    -0.02   0.00   0.00
    25   7     0.00  -0.06   0.01     0.00  -0.01  -0.06     0.02  -0.03   0.03
    26   6     0.02  -0.01  -0.02    -0.01  -0.01  -0.01     0.03   0.01   0.02
    27   6    -0.03   0.01   0.01     0.05   0.02  -0.01    -0.00  -0.01   0.02
    28  15    -0.01  -0.03   0.01     0.01  -0.01  -0.02     0.01  -0.01   0.02
    29   6    -0.03  -0.03   0.03     0.02  -0.02  -0.01    -0.11   0.05  -0.05
    30   6    -0.04  -0.03   0.04     0.01  -0.01  -0.03    -0.16   0.07  -0.09
    31   6    -0.06  -0.04   0.03    -0.03   0.02  -0.06    -0.13   0.05  -0.06
    32   6    -0.06  -0.04   0.02    -0.06   0.04  -0.07    -0.04   0.00  -0.01
    33   6    -0.04  -0.04   0.01    -0.05   0.02  -0.06     0.01  -0.02   0.03
    34   6     0.11   0.03  -0.07     0.03   0.02  -0.04     0.14   0.08  -0.04
    35   6     0.14   0.05  -0.10     0.02   0.01  -0.02     0.17   0.10  -0.05
    36   6     0.09   0.03  -0.08    -0.04  -0.03   0.02     0.08   0.04   0.01
    37   6     0.01  -0.01  -0.03    -0.08  -0.06   0.04    -0.02  -0.03   0.07
    38   6    -0.02  -0.03  -0.00    -0.07  -0.05   0.03    -0.04  -0.04   0.08
    39   6    -0.04   0.06   0.03     0.08   0.18   0.01    -0.00   0.06   0.05
    40   6    -0.05   0.09   0.04     0.12   0.23   0.03    -0.01   0.07   0.04
    41   6    -0.06   0.07   0.02     0.12   0.12   0.03    -0.02  -0.00   0.02
    42   6    -0.05   0.02  -0.01     0.08  -0.04   0.02    -0.02  -0.07  -0.01
    43   6    -0.04  -0.01  -0.01     0.04  -0.09  -0.01    -0.01  -0.08  -0.01
    44   1    -0.03  -0.12   0.01    -0.07   0.09  -0.12     0.07  -0.00   0.05
    45   1    -0.11  -0.03  -0.02    -0.09   0.08  -0.09     0.09  -0.01   0.04
    46   1    -0.16   0.12  -0.08    -0.03  -0.01   0.02     0.08   0.00  -0.01
    47   1    -0.13   0.18  -0.10     0.03  -0.09   0.10     0.04   0.02  -0.04
    48   1     0.02  -0.05  -0.00    -0.01   0.02  -0.05     0.04   0.01   0.04
    49   1     0.05  -0.10   0.01     0.04   0.03  -0.05    -0.00   0.01   0.03
    50   1    -0.01   0.05   0.08    -0.08   0.03   0.04     0.01  -0.13  -0.03
    51   1     0.07   0.06   0.17    -0.13  -0.00   0.14    -0.07  -0.14  -0.11
    52   1     0.17  -0.01   0.19    -0.09  -0.05   0.15    -0.15  -0.07  -0.13
    53   1     0.18  -0.10   0.12    -0.01  -0.05   0.07    -0.16   0.02  -0.07
    54   1     0.10  -0.12   0.03     0.04  -0.02  -0.03    -0.08   0.03   0.01
    55   1    -0.02  -0.02   0.04     0.06  -0.05   0.01    -0.13   0.06  -0.07
    56   1    -0.04  -0.03   0.05     0.03  -0.03  -0.02    -0.23   0.11  -0.13
    57   1    -0.07  -0.04   0.03    -0.04   0.03  -0.07    -0.17   0.07  -0.09
    58   1    -0.07  -0.05   0.01    -0.09   0.06  -0.10    -0.02  -0.01   0.01
    59   1    -0.05  -0.04   0.00    -0.06   0.03  -0.07     0.07  -0.05   0.06
    60   1     0.14   0.05  -0.08     0.08   0.05  -0.07     0.21   0.13  -0.09
    61   1     0.21   0.08  -0.13     0.05   0.03  -0.04     0.25   0.16  -0.10
    62   1     0.12   0.04  -0.10    -0.05  -0.03   0.03     0.10   0.06   0.00
    63   1    -0.03  -0.03  -0.01    -0.13  -0.09   0.07    -0.09  -0.07   0.12
    64   1    -0.08  -0.06   0.04    -0.10  -0.07   0.05    -0.13  -0.10   0.13
    65   1    -0.04   0.07   0.05     0.08   0.26   0.01     0.00   0.11   0.07
    66   1    -0.06   0.13   0.06     0.15   0.36   0.04    -0.01   0.13   0.06
    67   1    -0.07   0.10   0.02     0.15   0.16   0.05    -0.03   0.00   0.02
    68   1    -0.06   0.01  -0.03     0.08  -0.12   0.02    -0.03  -0.13  -0.03
    69   1    -0.04  -0.05  -0.03     0.01  -0.21  -0.02    -0.01  -0.13  -0.03
                      7                      8                      9
                      A                      A                      A
 Frequencies --     37.9829                42.0056                47.7662
 Red. masses --      4.6816                 4.4957                 4.2922
 Frc consts  --      0.0040                 0.0047                 0.0058
 IR Inten    --      0.4349                 0.2230                 0.2496
  Atom  AN      X      Y      Z        X      Y      Z        X      Y      Z
     1   6     0.05  -0.03   0.04     0.01  -0.05   0.03    -0.03   0.00  -0.01
     2   6     0.06  -0.02   0.03     0.01  -0.04   0.03    -0.03   0.01  -0.01
     3   6     0.04   0.01  -0.01     0.00  -0.02   0.00    -0.03   0.01  -0.01
     4   6     0.01   0.03  -0.04    -0.01   0.01  -0.02    -0.02   0.00  -0.00
     5   6     0.01   0.02  -0.02    -0.01   0.00  -0.01    -0.02  -0.00  -0.00
     6   6     0.03  -0.01   0.02    -0.00  -0.02   0.01    -0.02  -0.00  -0.01
     7   6     0.02  -0.02   0.04    -0.00  -0.03   0.02    -0.02  -0.00  -0.01
     8   8    -0.02   0.01  -0.02    -0.03   0.01  -0.02    -0.01   0.00  -0.00
     9   8     0.07   0.04   0.00     0.04   0.02  -0.01    -0.03  -0.01  -0.01
    10  16     0.01   0.01  -0.00    -0.00   0.00  -0.01    -0.02  -0.00  -0.00
    11   7    -0.00  -0.03   0.03    -0.02  -0.04   0.02    -0.02   0.00  -0.01
    12   8    -0.01   0.03  -0.04    -0.03   0.02  -0.03    -0.01  -0.01   0.00
    13   6     0.11   0.03  -0.02    -0.04  -0.05   0.02     0.08   0.03  -0.08
    14   6     0.08   0.01  -0.01    -0.02  -0.04  -0.01     0.08   0.04  -0.10
    15   6    -0.04  -0.04   0.05     0.08   0.03  -0.07    -0.02   0.01  -0.06
    16   6    -0.13  -0.08   0.10     0.15   0.07  -0.10    -0.12  -0.03   0.01
    17   6    -0.10  -0.07   0.09     0.12   0.05  -0.07    -0.12  -0.04   0.03
    18   8     0.09   0.01   0.01    -0.01  -0.03   0.02    -0.00  -0.01  -0.00
    19   6     0.02  -0.01   0.03     0.03  -0.01  -0.01    -0.03  -0.01  -0.01
    20   6     0.04  -0.00   0.03    -0.00  -0.03   0.01    -0.02  -0.01   0.00
    21   8     0.03   0.01   0.07     0.01  -0.03   0.00    -0.02   0.00   0.01
    22   6     0.02  -0.01   0.04    -0.00  -0.02   0.02    -0.02  -0.01  -0.00
    23   7     0.01  -0.03  -0.00    -0.01   0.00   0.03    -0.02  -0.02  -0.01
    24   6    -0.01  -0.02  -0.03     0.02   0.01  -0.02    -0.01  -0.02  -0.00
    25   7     0.01  -0.03  -0.02     0.00   0.01   0.02    -0.02  -0.02  -0.00
    26   6    -0.00  -0.03  -0.02    -0.01   0.00   0.02     0.01   0.01   0.02
    27   6     0.00   0.00  -0.01    -0.02  -0.00  -0.01    -0.01  -0.02   0.00
    28  15     0.01  -0.03  -0.02     0.00   0.00  -0.00    -0.02  -0.02   0.00
    29   6    -0.02  -0.01  -0.04     0.04  -0.01  -0.04     0.12  -0.09   0.07
    30   6    -0.05   0.01  -0.07     0.07  -0.00  -0.06     0.16  -0.11   0.09
    31   6    -0.08   0.03  -0.08     0.09   0.02  -0.05     0.08  -0.05   0.03
    32   6    -0.07   0.02  -0.07     0.07   0.04  -0.03    -0.05   0.03  -0.05
    33   6    -0.03   0.00  -0.04     0.04   0.03  -0.01    -0.09   0.04  -0.06
    34   6    -0.12  -0.10   0.05    -0.07  -0.01   0.06     0.00   0.07   0.02
    35   6    -0.15  -0.12   0.06    -0.11  -0.01   0.10     0.06   0.12   0.03
    36   6    -0.05  -0.06   0.01    -0.08  -0.02   0.11     0.13   0.13   0.04
    37   6     0.06   0.00  -0.06    -0.01  -0.01   0.08     0.13   0.07   0.05
    38   6     0.08   0.02  -0.07     0.02  -0.00   0.04     0.07   0.02   0.04
    39   6    -0.00   0.06   0.01    -0.03   0.15   0.06    -0.01   0.05   0.02
    40   6    -0.01   0.13   0.02    -0.06   0.17   0.05    -0.01   0.05   0.02
    41   6    -0.01   0.15   0.02    -0.09   0.04  -0.01    -0.02  -0.02  -0.00
    42   6    -0.00   0.09  -0.01    -0.08  -0.11  -0.08    -0.02  -0.09  -0.02
    43   6     0.00   0.02  -0.02    -0.04  -0.13  -0.07    -0.02  -0.09  -0.02
    44   1     0.06  -0.05   0.07     0.02  -0.06   0.05    -0.03   0.00  -0.02
    45   1     0.07  -0.03   0.04     0.03  -0.06   0.04    -0.04   0.01  -0.02
    46   1     0.04   0.02  -0.03     0.00  -0.01  -0.00    -0.03   0.01  -0.01
    47   1     0.00   0.05  -0.07    -0.02   0.03  -0.04    -0.02   0.00   0.00
    48   1     0.02  -0.01   0.05    -0.01  -0.02   0.03    -0.01  -0.01  -0.01
    49   1    -0.00  -0.05   0.06    -0.01  -0.05   0.03    -0.02   0.01  -0.01
    50   1     0.20   0.07  -0.07    -0.11  -0.10   0.07     0.15   0.05  -0.11
    51   1     0.15   0.05  -0.05    -0.07  -0.07   0.02     0.17   0.07  -0.16
    52   1    -0.07  -0.05   0.06     0.11   0.04  -0.09    -0.01   0.01  -0.08
    53   1    -0.22  -0.13   0.15     0.23   0.12  -0.15    -0.20  -0.06   0.04
    54   1    -0.17  -0.10   0.13     0.18   0.09  -0.10    -0.20  -0.07   0.09
    55   1     0.00  -0.02  -0.02     0.02  -0.03  -0.05     0.18  -0.14   0.12
    56   1    -0.06   0.01  -0.07     0.08  -0.02  -0.08     0.27  -0.17   0.15
    57   1    -0.11   0.05  -0.11     0.11   0.02  -0.06     0.12  -0.06   0.04
    58   1    -0.09   0.04  -0.09     0.09   0.06  -0.02    -0.11   0.08  -0.09
    59   1    -0.02  -0.00  -0.03     0.03   0.05   0.00    -0.16   0.09  -0.10
    60   1    -0.19  -0.15   0.09    -0.09  -0.00   0.05    -0.04   0.06   0.01
    61   1    -0.24  -0.17   0.12    -0.16  -0.02   0.13     0.06   0.16   0.03
    62   1    -0.07  -0.07   0.02    -0.11  -0.02   0.15     0.18   0.17   0.05
    63   1     0.14   0.05  -0.10     0.01  -0.01   0.09     0.18   0.08   0.06
    64   1     0.17   0.06  -0.12     0.06   0.00   0.01     0.07  -0.03   0.05
    65   1     0.00   0.05   0.02    -0.01   0.24   0.11    -0.00   0.10   0.04
    66   1    -0.01   0.18   0.04    -0.07   0.29   0.10    -0.01   0.10   0.04
    67   1    -0.01   0.21   0.03    -0.11   0.06  -0.02    -0.02  -0.03  -0.00
    68   1    -0.01   0.11  -0.01    -0.09  -0.21  -0.13    -0.03  -0.15  -0.04
    69   1     0.00  -0.02  -0.04    -0.04  -0.23  -0.12    -0.02  -0.14  -0.03
                     10                     11                     12
                      A                      A                      A
 Frequencies --     53.6462                56.5571                58.9339
 Red. masses --      4.2893                 4.9117                 5.9819
 Frc consts  --      0.0073                 0.0093                 0.0122
 IR Inten    --      0.1965                 0.8368                 0.4737
  Atom  AN      X      Y      Z        X      Y      Z        X      Y      Z
     1   6    -0.05  -0.02  -0.03     0.02  -0.08   0.04    -0.00  -0.11   0.09
     2   6    -0.07  -0.00  -0.03     0.02  -0.08   0.03     0.01  -0.10   0.08
     3   6    -0.07   0.01  -0.02    -0.01  -0.02  -0.01    -0.03  -0.03  -0.00
     4   6    -0.05   0.01  -0.01    -0.02   0.02  -0.04    -0.07   0.03  -0.06
     5   6    -0.03  -0.01  -0.01    -0.02   0.01  -0.03    -0.08   0.02  -0.04
     6   6    -0.03  -0.02  -0.02     0.00  -0.04   0.01    -0.04  -0.05   0.03
     7   6    -0.01  -0.02  -0.03     0.00  -0.05   0.02    -0.06  -0.04   0.05
     8   8     0.02  -0.01   0.00     0.00  -0.05   0.02    -0.10  -0.08   0.02
     9   8    -0.01  -0.01  -0.00     0.09   0.05   0.06     0.04   0.08   0.09
    10  16     0.00  -0.01  -0.00     0.02  -0.01   0.02    -0.06  -0.01   0.03
    11   7     0.00  -0.02  -0.03     0.00  -0.09   0.03    -0.08  -0.11   0.06
    12   8    -0.01  -0.01   0.01    -0.04   0.04  -0.06    -0.13   0.06  -0.09
    13   6     0.03   0.02  -0.02    -0.06  -0.07   0.02     0.03   0.03  -0.02
    14   6     0.02   0.01  -0.00    -0.14  -0.11   0.04     0.04   0.04  -0.04
    15   6    -0.04  -0.03   0.03    -0.14  -0.09   0.03     0.03   0.05  -0.05
    16   6    -0.08  -0.06   0.05    -0.06  -0.03  -0.01     0.01   0.05  -0.03
    17   6    -0.06  -0.05   0.03     0.02   0.00  -0.02    -0.01   0.04  -0.00
    18   8     0.00  -0.00  -0.02     0.07   0.00  -0.02     0.03   0.03   0.00
    19   6    -0.01  -0.01  -0.01     0.01  -0.02  -0.01     0.01   0.03  -0.00
    20   6     0.00  -0.00  -0.02     0.04  -0.01  -0.01     0.00   0.03   0.01
    21   8    -0.00  -0.01  -0.02     0.03  -0.01   0.01    -0.01   0.01   0.05
    22   6    -0.01  -0.02  -0.04     0.01  -0.02   0.00    -0.04  -0.00   0.03
    23   7    -0.01  -0.02  -0.04    -0.00  -0.02  -0.02    -0.06   0.01   0.00
    24   6    -0.00   0.01  -0.03     0.00   0.03  -0.04    -0.00   0.02  -0.01
    25   7    -0.00  -0.01  -0.02     0.01   0.00  -0.03    -0.04   0.03  -0.01
    26   6    -0.00   0.03   0.02     0.01   0.05  -0.01    -0.05  -0.01  -0.01
    27   6    -0.00   0.00  -0.02    -0.01   0.03  -0.04     0.04  -0.01   0.02
    28  15    -0.01   0.01  -0.02    -0.00   0.03  -0.04    -0.03   0.01   0.00
    29   6    -0.11   0.07  -0.11     0.09  -0.02   0.02    -0.01   0.01  -0.04
    30   6    -0.05   0.04  -0.07     0.13  -0.04   0.05     0.02   0.01  -0.06
    31   6     0.14  -0.05   0.06     0.09  -0.01   0.02     0.06   0.03  -0.04
    32   6     0.24  -0.11   0.14     0.00   0.03  -0.04     0.06   0.04  -0.01
    33   6     0.17  -0.07   0.09    -0.04   0.05  -0.06     0.03   0.04   0.01
    34   6    -0.03   0.05   0.03     0.03   0.10  -0.03     0.00  -0.01  -0.03
    35   6    -0.03   0.07   0.06    -0.00   0.09   0.02     0.04  -0.00  -0.09
    36   6     0.01   0.07   0.08    -0.06   0.04   0.09     0.03   0.01  -0.11
    37   6     0.04   0.05   0.07    -0.08  -0.01   0.10    -0.03   0.01  -0.08
    38   6     0.03   0.02   0.04    -0.04  -0.00   0.05    -0.07   0.00  -0.03
    39   6     0.01   0.02  -0.02    -0.02  -0.07  -0.06     0.11   0.04  -0.03
    40   6     0.02   0.05  -0.01    -0.02  -0.04  -0.05     0.19   0.02  -0.02
    41   6     0.02   0.05  -0.00    -0.01   0.10  -0.02     0.21  -0.04   0.05
    42   6     0.01   0.02  -0.00     0.00   0.18  -0.00     0.15  -0.09   0.11
    43   6     0.00   0.00  -0.01     0.00   0.15  -0.01     0.06  -0.07   0.09
    44   1    -0.05  -0.03  -0.04     0.04  -0.12   0.07     0.03  -0.16   0.14
    45   1    -0.09  -0.00  -0.04     0.04  -0.11   0.06     0.04  -0.15   0.13
    46   1    -0.09   0.02  -0.02    -0.01  -0.01  -0.01    -0.03  -0.03  -0.01
    47   1    -0.05   0.02   0.00    -0.04   0.06  -0.07    -0.10   0.08  -0.11
    48   1    -0.01  -0.03  -0.04    -0.02  -0.03   0.04    -0.10  -0.02   0.08
    49   1     0.01  -0.02  -0.03     0.02  -0.13   0.06    -0.07  -0.17   0.12
    50   1     0.07   0.05  -0.05    -0.07  -0.09   0.03     0.04   0.03  -0.02
    51   1     0.05   0.03  -0.02    -0.20  -0.15   0.07     0.06   0.04  -0.06
    52   1    -0.06  -0.04   0.05    -0.20  -0.12   0.05     0.04   0.06  -0.07
    53   1    -0.13  -0.09   0.08    -0.05  -0.01  -0.02     0.00   0.06  -0.03
    54   1    -0.10  -0.07   0.04     0.07   0.04  -0.05    -0.02   0.04   0.01
    55   1    -0.25   0.13  -0.20     0.12  -0.04   0.04    -0.03  -0.00  -0.06
    56   1    -0.14   0.08  -0.14     0.20  -0.08   0.09     0.02   0.01  -0.08
    57   1     0.20  -0.08   0.09     0.13  -0.03   0.04     0.08   0.04  -0.05
    58   1     0.38  -0.18   0.23    -0.03   0.06  -0.06     0.08   0.05   0.01
    59   1     0.23  -0.11   0.14    -0.09   0.08  -0.10     0.03   0.04   0.03
    60   1    -0.06   0.06   0.02     0.07   0.14  -0.08     0.02  -0.02  -0.02
    61   1    -0.06   0.09   0.07     0.01   0.13   0.01     0.08  -0.01  -0.11
    62   1     0.01   0.08   0.10    -0.09   0.03   0.13     0.06   0.02  -0.15
    63   1     0.07   0.04   0.08    -0.12  -0.05   0.16    -0.04   0.02  -0.10
    64   1     0.06   0.00   0.03    -0.06  -0.04   0.06    -0.10   0.01  -0.01
    65   1     0.01   0.03  -0.03    -0.03  -0.16  -0.08     0.09   0.08  -0.09
    66   1     0.03   0.07  -0.01    -0.03  -0.11  -0.07     0.24   0.05  -0.06
    67   1     0.03   0.07   0.01    -0.01   0.12  -0.02     0.28  -0.06   0.07
    68   1     0.02   0.02   0.01     0.01   0.28   0.02     0.16  -0.14   0.16
    69   1    -0.00  -0.01  -0.01     0.01   0.21   0.00     0.01  -0.11   0.13
                     13                     14                     15
                      A                      A                      A
 Frequencies --     66.9323                77.5770                83.1917
 Red. masses --      5.3849                 6.0556                 8.0127
 Frc consts  --      0.0142                 0.0215                 0.0327
 IR Inten    --      1.4306                 1.3722                 1.6012
  Atom  AN      X      Y      Z        X      Y      Z        X      Y      Z
     1   6    -0.05   0.04  -0.02     0.08   0.08   0.05    -0.01   0.06   0.05
     2   6    -0.07   0.06  -0.04     0.16   0.00   0.09    -0.04   0.14  -0.03
     3   6    -0.06   0.05  -0.03     0.17  -0.06   0.08    -0.04   0.13  -0.06
     4   6    -0.04   0.01   0.01     0.11  -0.04   0.03    -0.03   0.05   0.00
     5   6    -0.02  -0.02   0.03     0.03   0.05  -0.00    -0.00  -0.03   0.08
     6   6    -0.03  -0.00   0.01     0.02   0.10   0.01     0.00  -0.03   0.10
     7   6    -0.02  -0.01   0.01    -0.02   0.10   0.04    -0.00  -0.03   0.12
     8   8    -0.04   0.06  -0.03    -0.07  -0.03   0.03    -0.13   0.16  -0.09
     9   8    -0.07  -0.07  -0.07    -0.04   0.09   0.08    -0.01  -0.14  -0.18
    10  16    -0.04  -0.00  -0.02    -0.04   0.04   0.03    -0.05  -0.00  -0.04
    11   7    -0.03   0.04  -0.01    -0.04   0.05   0.04    -0.05   0.03   0.09
    12   8     0.00  -0.04   0.06    -0.03   0.06  -0.05     0.01  -0.08   0.11
    13   6    -0.02  -0.03   0.02    -0.05   0.03   0.02     0.03  -0.05   0.05
    14   6     0.01  -0.01  -0.03     0.01   0.05   0.04     0.00  -0.06   0.03
    15   6     0.05   0.03  -0.06     0.08   0.04   0.03     0.03  -0.01   0.00
    16   6     0.05   0.05  -0.05     0.09   0.01  -0.00     0.07   0.03  -0.01
    17   6     0.01   0.02  -0.00     0.03  -0.01  -0.03     0.09   0.04   0.02
    18   8    -0.03  -0.03   0.05    -0.05   0.02  -0.05     0.22   0.02   0.02
    19   6    -0.02  -0.02   0.03    -0.04   0.00  -0.02     0.07  -0.00   0.04
    20   6    -0.03  -0.02   0.05    -0.05   0.01  -0.05     0.11   0.01   0.06
    21   8    -0.03  -0.01   0.05    -0.05   0.02  -0.04     0.06   0.02   0.18
    22   6    -0.02  -0.02   0.03    -0.03   0.06   0.02     0.00  -0.02   0.12
    23   7    -0.01  -0.03   0.04    -0.02   0.03   0.00    -0.04  -0.06  -0.00
    24   6     0.04  -0.04  -0.03    -0.05  -0.08  -0.06    -0.06  -0.01  -0.05
    25   7    -0.02  -0.03   0.06    -0.05  -0.05  -0.06    -0.01  -0.03  -0.06
    26   6     0.00  -0.06   0.03    -0.02  -0.05  -0.02    -0.02   0.03  -0.06
    27   6    -0.01  -0.07   0.03    -0.02  -0.07  -0.06     0.01   0.01  -0.07
    28  15    -0.01  -0.07   0.03    -0.03  -0.08  -0.06    -0.03   0.01  -0.08
    29   6     0.04  -0.07  -0.09    -0.06  -0.07  -0.04    -0.04  -0.00   0.01
    30   6     0.06  -0.02  -0.16    -0.05  -0.10  -0.00    -0.01  -0.05   0.09
    31   6     0.06   0.05  -0.16    -0.02  -0.15   0.02    -0.01  -0.11   0.10
    32   6     0.06   0.07  -0.10    -0.01  -0.16   0.00    -0.04  -0.11   0.03
    33   6     0.05   0.03  -0.03    -0.03  -0.13  -0.04    -0.07  -0.06  -0.05
    34   6     0.04  -0.03   0.01    -0.03   0.03  -0.03    -0.03   0.05  -0.06
    35   6     0.08   0.00  -0.00     0.01   0.08   0.02    -0.05   0.06  -0.02
    36   6     0.09  -0.00   0.00     0.06   0.06   0.06    -0.06   0.03   0.02
    37   6     0.05  -0.04   0.03     0.07  -0.01   0.07    -0.04   0.01   0.01
    38   6     0.01  -0.06   0.04     0.03  -0.07   0.03    -0.02   0.01  -0.03
    39   6    -0.01  -0.11   0.01    -0.00  -0.05  -0.06     0.04   0.04  -0.10
    40   6     0.01   0.01   0.05     0.02   0.04  -0.04     0.09   0.03  -0.09
    41   6     0.03   0.19   0.10     0.03   0.10  -0.00     0.10  -0.02  -0.05
    42   6     0.02   0.21   0.11     0.02   0.07  -0.00     0.06  -0.04  -0.03
    43   6     0.01   0.07   0.07    -0.01  -0.02  -0.03     0.02  -0.03  -0.03
    44   1    -0.06   0.05  -0.04     0.08   0.12   0.07    -0.01   0.07   0.06
    45   1    -0.09   0.10  -0.07     0.21  -0.02   0.12    -0.05   0.21  -0.08
    46   1    -0.07   0.07  -0.04     0.23  -0.14   0.12    -0.06   0.20  -0.13
    47   1    -0.03  -0.00   0.02     0.12  -0.09   0.02    -0.03   0.05  -0.02
    48   1     0.01  -0.03  -0.01    -0.01   0.12   0.07     0.01  -0.05   0.09
    49   1    -0.04   0.08  -0.04    -0.05   0.03   0.07    -0.09   0.10   0.03
    50   1    -0.05  -0.06   0.04    -0.10   0.05   0.02     0.02  -0.08   0.07
    51   1     0.02  -0.02  -0.04    -0.00   0.08   0.07    -0.03  -0.09   0.04
    52   1     0.09   0.06  -0.10     0.13   0.06   0.04     0.01  -0.02  -0.01
    53   1     0.08   0.08  -0.08     0.14  -0.00  -0.01     0.10   0.07  -0.03
    54   1     0.01   0.04   0.01     0.04  -0.03  -0.05     0.13   0.08   0.01
    55   1     0.04  -0.11  -0.09    -0.08  -0.04  -0.06    -0.03   0.04   0.01
    56   1     0.06  -0.05  -0.21    -0.06  -0.08   0.02     0.01  -0.05   0.15
    57   1     0.07   0.08  -0.21    -0.00  -0.17   0.06     0.02  -0.15   0.16
    58   1     0.07   0.13  -0.10     0.01  -0.20   0.02    -0.04  -0.16   0.03
    59   1     0.04   0.05   0.02    -0.02  -0.14  -0.06    -0.07  -0.07  -0.08
    60   1     0.03  -0.02   0.00    -0.06   0.04  -0.06    -0.03   0.07  -0.08
    61   1     0.10   0.03  -0.02     0.01   0.15   0.01    -0.07   0.08  -0.01
    62   1     0.12   0.02  -0.01     0.09   0.11   0.10    -0.08   0.03   0.05
    63   1     0.06  -0.04   0.03     0.11  -0.03   0.11    -0.05  -0.01   0.04
    64   1    -0.01  -0.09   0.05     0.04  -0.13   0.03    -0.01  -0.01  -0.03
    65   1    -0.02  -0.22  -0.02    -0.01  -0.08  -0.08     0.03   0.07  -0.12
    66   1     0.01  -0.01   0.04     0.03   0.06  -0.04     0.11   0.05  -0.11
    67   1     0.04   0.30   0.13     0.05   0.18   0.02     0.13  -0.03  -0.05
    68   1     0.04   0.34   0.14     0.02   0.11   0.02     0.07  -0.08   0.00
    69   1     0.01   0.10   0.08    -0.02  -0.04  -0.03    -0.01  -0.05  -0.01
                     16                     17                     18
                      A                      A                      A
 Frequencies --     99.5792               108.3230               130.2137
 Red. masses --      7.1760                 4.1664                 5.9592
 Frc consts  --      0.0419                 0.0288                 0.0595
 IR Inten    --      3.4697                 0.1097                 2.4002
  Atom  AN      X      Y      Z        X      Y      Z        X      Y      Z
     1   6    -0.02  -0.11  -0.04    -0.01  -0.02   0.01    -0.05   0.16  -0.13
     2   6    -0.06  -0.09  -0.03    -0.01  -0.01   0.00    -0.01   0.10  -0.09
     3   6    -0.08  -0.01  -0.04    -0.02   0.00  -0.01     0.07  -0.10   0.07
     4   6    -0.05   0.02  -0.04    -0.02   0.01  -0.01     0.09  -0.15   0.11
     5   6    -0.01  -0.01  -0.05    -0.01  -0.00  -0.00     0.03  -0.03   0.01
     6   6     0.01  -0.06  -0.05    -0.00  -0.01   0.00    -0.02   0.06  -0.06
     7   6     0.02  -0.04  -0.09    -0.00  -0.01  -0.00     0.01  -0.02   0.01
     8   8     0.12  -0.09   0.04    -0.00  -0.01   0.00     0.03   0.05  -0.04
     9   8    -0.01   0.03   0.07    -0.02  -0.00   0.00     0.29   0.01  -0.03
    10  16     0.05  -0.02   0.00    -0.01  -0.00   0.00     0.10  -0.01  -0.00
    11   7     0.04  -0.02  -0.08    -0.01   0.00  -0.01     0.05  -0.16   0.06
    12   8     0.02   0.01  -0.04    -0.01  -0.00  -0.00     0.00   0.03  -0.03
    13   6    -0.03   0.06   0.06    -0.13  -0.06   0.08    -0.04  -0.01   0.04
    14   6    -0.01   0.08  -0.05    -0.19  -0.09   0.10    -0.02   0.00  -0.01
    15   6    -0.00   0.18  -0.10    -0.14  -0.05   0.06     0.00   0.04  -0.03
    16   6    -0.03   0.23  -0.05    -0.00   0.03  -0.01    -0.01   0.06  -0.01
    17   6    -0.05   0.19   0.06     0.06   0.06  -0.03    -0.03   0.04   0.03
    18   8     0.06   0.12   0.11    -0.02   0.01   0.02    -0.02   0.02   0.03
    19   6    -0.04   0.11   0.10    -0.02   0.01   0.02    -0.03   0.00   0.05
    20   6     0.00   0.11   0.13    -0.01   0.00   0.03    -0.02   0.01   0.04
    21   8    -0.00   0.14   0.17    -0.00   0.01   0.01    -0.03  -0.00   0.05
    22   6     0.02  -0.00  -0.04    -0.00   0.00   0.00    -0.02  -0.06  -0.03
    23   7     0.02  -0.09  -0.12     0.00   0.00   0.00    -0.03  -0.09  -0.06
    24   6     0.01  -0.05  -0.01     0.01  -0.01   0.00    -0.08   0.01  -0.01
    25   7     0.03  -0.03   0.00     0.00   0.01   0.01    -0.03  -0.06  -0.00
    26   6     0.03  -0.04  -0.01     0.02  -0.00  -0.01    -0.05   0.02   0.01
    27   6     0.01  -0.04  -0.03     0.01  -0.00  -0.00    -0.06  -0.00   0.02
    28  15     0.03  -0.04  -0.02     0.01  -0.01  -0.00    -0.07  -0.00   0.01
    29   6    -0.01  -0.02   0.02     0.00  -0.00  -0.00    -0.06  -0.02  -0.03
    30   6    -0.06  -0.03   0.05    -0.01   0.00  -0.00     0.02  -0.03  -0.03
    31   6    -0.08  -0.08   0.04    -0.01  -0.00  -0.00     0.06  -0.01  -0.00
    32   6    -0.05  -0.11   0.01    -0.00  -0.01   0.00     0.02   0.03   0.01
    33   6    -0.00  -0.10  -0.01     0.01  -0.01   0.00    -0.05   0.04   0.01
    34   6     0.02  -0.02  -0.01    -0.06  -0.05   0.03    -0.05   0.01   0.01
    35   6     0.01  -0.02   0.02     0.01  -0.00  -0.00    -0.03   0.01  -0.02
    36   6     0.00  -0.04   0.05     0.16   0.08  -0.09    -0.01   0.04  -0.05
    37   6     0.01  -0.06   0.05     0.22   0.11  -0.12    -0.02   0.05  -0.05
    38   6     0.02  -0.06   0.02     0.15   0.07  -0.08    -0.04   0.04  -0.02
    39   6    -0.01  -0.03  -0.01     0.01   0.01   0.00    -0.03   0.00  -0.01
    40   6    -0.03   0.01  -0.01     0.01   0.01   0.00     0.01  -0.00  -0.00
    41   6    -0.03   0.04  -0.02     0.01  -0.01  -0.01     0.02  -0.01   0.04
    42   6    -0.02   0.03  -0.04     0.01  -0.02  -0.01    -0.01  -0.01   0.07
    43   6     0.00  -0.01  -0.04     0.01  -0.02  -0.01    -0.05  -0.01   0.05
    44   1    -0.01  -0.15  -0.05    -0.00  -0.03   0.01    -0.10   0.27  -0.21
    45   1    -0.08  -0.12  -0.02    -0.01  -0.02   0.01    -0.05   0.17  -0.15
[...]
 Total V=0       0.368197D+31         30.566081         70.381002
 Vib (Bot)       0.119851-263       -263.921357       -607.701382
 Vib (Bot)    1  0.121949D+02          1.086179          2.501019
 Vib (Bot)    2  0.100004D+02          1.000018          2.302627
 Vib (Bot)    3  0.798969D+01          0.902530          2.078152
 Vib (Bot)    4  0.619962D+01          0.792365          1.824488
 Vib (Bot)    5  0.551310D+01          0.741396          1.707127
 Vib (Bot)    6  0.480665D+01          0.681842          1.570000
 Vib (Bot)    7  0.434459D+01          0.637949          1.468932
 Vib (Bot)    8  0.381817D+01          0.581855          1.339771
 Vib (Bot)    9  0.339715D+01          0.531115          1.222938
 Vib (Bot)   10  0.322102D+01          0.507994          1.169699
 Vib (Bot)   11  0.309007D+01          0.489968          1.128192
 Vib (Bot)   12  0.271740D+01          0.434153          0.999675
 Vib (Bot)   13  0.234006D+01          0.369226          0.850175
 Vib (Bot)   14  0.217968D+01          0.338393          0.779178
 Vib (Bot)   15  0.181422D+01          0.258690          0.595656
 Vib (Bot)   16  0.166403D+01          0.221160          0.509241
 Vib (Bot)   17  0.137537D+01          0.138420          0.318723
 Vib (Bot)   18  0.128920D+01          0.110319          0.254019
 Vib (Bot)   19  0.112592D+01          0.051508          0.118601
 Vib (Bot)   20  0.101872D+01          0.008057          0.018552
 Vib (Bot)   21  0.891158D+00         -0.050045         -0.115234
 Vib (Bot)   22  0.812302D+00         -0.090282         -0.207883
 Vib (Bot)   23  0.777177D+00         -0.109480         -0.252087
 Vib (Bot)   24  0.680656D+00         -0.167072         -0.384698
 Vib (Bot)   25  0.672370D+00         -0.172392         -0.396947
 Vib (Bot)   26  0.668549D+00         -0.174867         -0.402645
 Vib (Bot)   27  0.650396D+00         -0.186822         -0.430174
 Vib (Bot)   28  0.628034D+00         -0.202017         -0.465160
 Vib (Bot)   29  0.614021D+00         -0.211817         -0.487726
 Vib (Bot)   30  0.603932D+00         -0.219012         -0.504294
 Vib (Bot)   31  0.521492D+00         -0.282753         -0.651062
 Vib (Bot)   32  0.486614D+00         -0.312816         -0.720285
 Vib (Bot)   33  0.460942D+00         -0.336354         -0.774484
 Vib (Bot)   34  0.439731D+00         -0.356813         -0.821593
 Vib (Bot)   35  0.415074D+00         -0.381874         -0.879298
 Vib (Bot)   36  0.367086D+00         -0.435233         -1.002160
 Vib (Bot)   37  0.365089D+00         -0.437602         -1.007615
 Vib (Bot)   38  0.361582D+00         -0.441793         -1.017265
 Vib (Bot)   39  0.358287D+00         -0.445769         -1.026421
 Vib (Bot)   40  0.353462D+00         -0.451657         -1.039978
 Vib (Bot)   41  0.341430D+00         -0.466699         -1.074613
 Vib (Bot)   42  0.323011D+00         -0.490783         -1.130070
 Vib (Bot)   43  0.314695D+00         -0.502110         -1.156150
 Vib (Bot)   44  0.307814D+00         -0.511711         -1.178259
 Vib (Bot)   45  0.291952D+00         -0.534689         -1.231168
 Vib (Bot)   46  0.286736D+00         -0.542518         -1.249193
 Vib (Bot)   47  0.275038D+00         -0.560607         -1.290845
 Vib (Bot)   48  0.274504D+00         -0.561451         -1.292788
 Vib (Bot)   49  0.260839D+00         -0.583628         -1.343853
 Vib (Bot)   50  0.243814D+00         -0.612942         -1.411350
 Vib (Bot)   51  0.239834D+00         -0.620090         -1.427809
 Vib (Bot)   52  0.236509D+00         -0.626153         -1.441771
 Vib (V=0)       0.202997D+15         14.307489         32.944211
 Vib (V=0)    1  0.127052D+02          1.103980          2.542008
 Vib (V=0)    2  0.105129D+02          1.021723          2.352604
 Vib (V=0)    3  0.850532D+01          0.929691          2.140692
 Vib (V=0)    4  0.671975D+01          0.827353          1.905051
 Vib (V=0)    5  0.603573D+01          0.780730          1.797697
 Vib (V=0)    6  0.533258D+01          0.726938          1.673836
 Vib (V=0)    7  0.487327D+01          0.687820          1.583765
 Vib (V=0)    8  0.435077D+01          0.638566          1.470353
 Vib (V=0)    9  0.393375D+01          0.594807          1.369594
 Vib (V=0)   10  0.375960D+01          0.575142          1.324312
 Vib (V=0)   11  0.363026D+01          0.559937          1.289303
 Vib (V=0)   12  0.326301D+01          0.513619          1.182651
 Vib (V=0)   13  0.289288D+01          0.461330          1.062252
 Vib (V=0)   14  0.273629D+01          0.437162          1.006604
 Vib (V=0)   15  0.238186D+01          0.376916          0.867882
 Vib (V=0)   16  0.223752D+01          0.349768          0.805369
 Vib (V=0)   17  0.196344D+01          0.293017          0.674696
 Vib (V=0)   18  0.188276D+01          0.274795          0.632739
 Vib (V=0)   19  0.173195D+01          0.238535          0.549247
 Vib (V=0)   20  0.163481D+01          0.213468          0.491528
 Vib (V=0)   21  0.152184D+01          0.182370          0.419922
 Vib (V=0)   22  0.145385D+01          0.162520          0.374217
 Vib (V=0)   23  0.142412D+01          0.153548          0.353557
 Vib (V=0)   24  0.134457D+01          0.128582          0.296072
 Vib (V=0)   25  0.133790D+01          0.126425          0.291103
 Vib (V=0)   26  0.133484D+01          0.125429          0.288812
 Vib (V=0)   27  0.132037D+01          0.120697          0.277916
 Vib (V=0)   28  0.130276D+01          0.114865          0.264487
 Vib (V=0)   29  0.129185D+01          0.111211          0.256073
 Vib (V=0)   30  0.128405D+01          0.108582          0.250019
 Vib (V=0)   31  0.122246D+01          0.087236          0.200868
 Vib (V=0)   32  0.119771D+01          0.078350          0.180408
 Vib (V=0)   33  0.118005D+01          0.071900          0.165556
 Vib (V=0)   34  0.116586D+01          0.066645          0.153455
 Vib (V=0)   35  0.114984D+01          0.060636          0.139619
 Vib (V=0)   36  0.112028D+01          0.049328          0.113582
 Vib (V=0)   37  0.111910D+01          0.048870          0.112528
 Vib (V=0)   38  0.111704D+01          0.048070          0.110685
 Vib (V=0)   39  0.111512D+01          0.047321          0.108960
 Vib (V=0)   40  0.111232D+01          0.046230          0.106448
 Vib (V=0)   41  0.110545D+01          0.043541          0.100256
 Vib (V=0)   42  0.109526D+01          0.039518          0.090993
 Vib (V=0)   43  0.109079D+01          0.037741          0.086903
 Vib (V=0)   44  0.108715D+01          0.036291          0.083563
 Vib (V=0)   45  0.107900D+01          0.033020          0.076030
 Vib (V=0)   46  0.107638D+01          0.031967          0.073607
 Vib (V=0)   47  0.107065D+01          0.029649          0.068270
 Vib (V=0)   48  0.107040D+01          0.029545          0.068030
 Vib (V=0)   49  0.106395D+01          0.026920          0.061986
 Vib (V=0)   50  0.105628D+01          0.023778          0.054751
 Vib (V=0)   51  0.105455D+01          0.023065          0.053109
 Vib (V=0)   52  0.105312D+01          0.022476          0.051753
 Electronic      0.100000D+01          0.000000          0.000000
 Translational   0.430330D+09          8.633801         19.880062
 Rotational      0.421493D+08          7.624790         17.556729
 ***** Axes restored to original set *****
 -------------------------------------------------------------------
 Center     Atomic                   Forces (Hartrees/Bohr)
 Number     Number              X              Y              Z
 -------------------------------------------------------------------
      1        6          -0.000000527   -0.000001958   -0.000002106
      2        6          -0.000000950   -0.000001893   -0.000002444
      3        6          -0.000000173   -0.000002339   -0.000003116
      4        6          -0.000000187   -0.000002257   -0.000003084
      5        6          -0.000000097   -0.000001828   -0.000002164
      6        6          -0.000000062   -0.000003255   -0.000003977
      7        6           0.000000240    0.000001476   -0.000001776
      8        8           0.000000754   -0.000000784   -0.000002668
      9        8          -0.000000732   -0.000002222   -0.000001816
     10       16           0.000000662   -0.000000625   -0.000001766
     11        7          -0.000000699   -0.000003593   -0.000001691
     12        8           0.000000547   -0.000001337   -0.000002999
     13        6           0.000001132    0.000000366   -0.000000427
     14        6           0.000002785    0.000001065   -0.000000191
     15        6           0.000001774    0.000000486   -0.000000936
     16        6           0.000001145    0.000000042   -0.000001135
     17        6           0.000001073   -0.000000218   -0.000000769
     18        8           0.000000233   -0.000000710    0.000000682
     19        6           0.000000890    0.000000389    0.000000040
     20        6          -0.000000951    0.000000788   -0.000001232
     21        8           0.000001832   -0.000000742   -0.000000436
     22        6          -0.000000173   -0.000001432   -0.000000269
     23        7          -0.000000281    0.000000282   -0.000000877
     24        6          -0.000000460    0.000001251    0.000002360
     25        7          -0.000000318    0.000000842   -0.000001498
     26        6           0.000002068    0.000002156    0.000001692
     27        6          -0.000000856   -0.000001155    0.000001228
     28       15           0.000000599    0.000000350    0.000001470
     29        6          -0.000000862    0.000001612    0.000001861
     30        6          -0.000000789    0.000001092    0.000002674
     31        6          -0.000000664    0.000001273    0.000002089
     32        6           0.000000431    0.000001363    0.000001677
     33        6           0.000000654    0.000001302    0.000000836
     34        6           0.000000924    0.000000795    0.000000606
     35        6           0.000001595    0.000001978    0.000001774
     36        6           0.000001364    0.000002137    0.000001423
     37        6           0.000000078    0.000000883    0.000000219
     38        6           0.000000555    0.000000971    0.000001358
     39        6          -0.000001497   -0.000000408    0.000000964
     40        6          -0.000002976   -0.000000712    0.000000935
     41        6          -0.000002186   -0.000000346    0.000001605
     42        6          -0.000002199    0.000000240    0.000002296
     43        6          -0.000001890    0.000000726    0.000002011
     44        1          -0.000000806   -0.000001519   -0.000001421
     45        1          -0.000000930   -0.000002196   -0.000002421
     46        1          -0.000000472   -0.000002802   -0.000003593
     47        1           0.000000106   -0.000002565   -0.000003808
     48        1          -0.000001381   -0.000001547    0.000000105
     49        1           0.000000299   -0.000000506   -0.000001230
     50        1           0.000002458    0.000000651   -0.000000388
     51        1           0.000002680    0.000001355   -0.000000378
     52        1           0.000002086    0.000000594   -0.000000987
     53        1           0.000000953   -0.000000340   -0.000001373
     54        1           0.000000572   -0.000000463   -0.000001108
     55        1          -0.000001325    0.000001801    0.000001958
     56        1          -0.000001269    0.000001296    0.000002988
     57        1          -0.000000404    0.000001435    0.000002449
     58        1           0.000000484    0.000001166    0.000001184
     59        1           0.000000551    0.000001388    0.000000678
     60        1           0.000001152    0.000001648    0.000001825
     61        1           0.000001802    0.000002375    0.000001846
     62        1           0.000001826    0.000002142    0.000001485
     63        1           0.000001023    0.000001251    0.000000893
     64        1          -0.000000020    0.000000514    0.000000735
     65        1          -0.000002018   -0.000000877    0.000000203
     66        1          -0.000002814   -0.000001101    0.000000821
     67        1          -0.000003175   -0.000000561    0.000001887
     68        1          -0.000002174    0.000000413    0.000002603
     69        1          -0.000001008    0.000000395    0.000002626
 -------------------------------------------------------------------
 Cartesian Forces:  Max     0.000003977 RMS     0.000001551
 FormGI is forming the generalized inverse of G from B-inverse, IUseBI=4.

 ----------------------------------------------------------------------

 Electric dipole moment (input orientation):
 (Debye = 10**-18 statcoulomb cm , SI units = C m)
                  (au)            (Debye)         (10**-30 SI)
   Tot        0.598397D+01      0.152097D+02      0.507342D+02
   x          0.525648D+01      0.133606D+02      0.445663D+02
   y         -0.309229D+00     -0.785982D+00     -0.262175D+01
   z          0.284282D+01      0.722572D+01      0.241024D+02

 Dipole polarizability, Alpha (input orientation).
 (esu units = cm**3 , SI units = C**2 m**2 J**-1)
 Alpha(0;0):
               (au)            (10**-24 esu)      (10**-40 SI)
   iso        0.499439D+03      0.740092D+02      0.823464D+02
   aniso      0.879742D+02      0.130364D+02      0.145050D+02
   xx         0.502580D+03      0.744747D+02      0.828642D+02
   yx        -0.127684D+02     -0.189208D+01     -0.210522D+01
   yy         0.486934D+03      0.721561D+02      0.802845D+02
   zx        -0.573318D+00     -0.849570D-01     -0.945274D-01
   zy        -0.478486D+02     -0.709043D+01     -0.788916D+01
   zz         0.508804D+03      0.753969D+02      0.838904D+02

 ----------------------------------------------------------------------

 Dipole orientation:
     6         -6.25546461         -1.69712353         -3.25971185
     6         -8.18159481         -3.42722820         -3.68317580
     6         -8.78674927         -4.13995428         -6.14612720
     6         -7.47843214         -3.10422004         -8.17051363
     6         -5.55740885         -1.37924286         -7.70212621
     6         -4.88574523         -0.65782157         -5.26188667
     6         -2.80176158          1.25251247         -4.72170480
     8         -1.18107276          2.40379247        -11.69729079
     8         -4.80111259          4.14630994         -9.17669954
    16         -2.88873955          2.22788012         -9.58487205
     7         -1.24293715          1.61010580         -7.00315857
     8         -4.29373985         -0.47390606         -9.84134656
     6          4.35591983         -5.84060496          0.67536023
     6          4.31613440         -8.17781121          1.88092313
     6          2.01917460         -9.31063112          2.47809786
     6         -0.24108759         -8.10213086          1.85932213
     6         -0.20089424         -5.77092253          0.65066739
     8          4.27680759         -1.12972576         -1.81512628
     6          2.10233801         -4.62994537          0.06056875
     6          2.26488909         -2.09895686         -1.21789887
     8          0.15560954         -1.77735858         -2.96793131
     6         -1.13524309          0.36961309         -2.61434045
     7         -1.06294276          1.51682229         -0.48652539
     6          3.32322116          4.31908659          2.88912537
     7          0.41903115          0.07038111          1.12871428
     6          3.56142635         -0.80530668          5.10344015
     6         -0.87428837          2.35829192          5.88094940
    15          1.54329583          1.49094934          3.61378933
     6          3.45756927          6.35456152          4.56935629
     6          4.88483577          8.47024833          3.94216328
     6          6.16536551          8.56092305          1.64289270
     6          6.02215557          6.53808869         -0.03603619
     6          4.59936290          4.41237510          0.57350686
     6          6.18648312         -0.57014472          5.02112216
     6          7.69435288         -2.43317144          6.10583480
     6          6.58429220         -4.51367941          7.26962910
     6          3.96201508         -4.74976842          7.35005280
     6          2.44656378         -2.90244838          6.26864920
     6         -3.28520624          3.01798430          5.01958525
     6         -5.13492365          3.73371430          6.74516717
     6         -4.58858000          3.80088542          9.31968731
     6         -2.18895575          3.14560244         10.18070117
     6         -0.33071226          2.41974112          8.46831340
     1         -5.77574866         -1.14075850         -1.34207259
     1         -9.20766975         -4.21949769         -2.09529030
     1        -10.28536383         -5.49448068         -6.49606531
     1         -7.91615965         -3.60590041        -10.10844800
     1         -3.65416017          3.03885406         -4.10248594
     1          0.16965155          2.89585234         -6.77526448
     1          6.12961496         -4.91948648          0.22076421
     1          6.08099612         -9.10473940          2.36755088
     1          1.98382572        -11.13173721          3.42430876
     1         -2.03704164         -8.98302609          2.31847781
     1         -1.95391628         -4.82155188          0.17042023
     1          2.44780291          6.30231344          6.35453079
     1          4.98892802         10.05137310          5.24423037
     1          7.27229814         10.21832811          1.15566767
     1          7.01516081          6.61602711         -1.82909923
     1          4.48504841          2.81958627         -0.72307333
     1          7.05555832          1.04910157          4.11047791
     1          9.73608638         -2.25365500          6.04021499
     1          7.76593221         -5.96356879          8.11268210
     1          3.09858136         -6.38473884          8.23543129
     1          0.40514895         -3.09944855          6.31271880
     1         -3.70357599          2.96475388          3.01213040
     1         -7.00713466          4.23804968          6.07672318
     1         -6.03807157          4.35971740         10.65953029
     1         -1.76370624          3.18868604         12.18646580
     1          1.53103923          1.88965830          9.15140018

 Electric dipole moment (dipole orientation):
 (Debye = 10**-18 statcoulomb cm , SI units = C m)
                  (au)            (Debye)         (10**-30 SI)
   Tot        0.598397D+01      0.152097D+02      0.507342D+02
   x          0.000000D+00      0.000000D+00      0.000000D+00
   y          0.000000D+00      0.000000D+00      0.000000D+00
   z          0.598397D+01      0.152097D+02      0.507342D+02

 Dipole polarizability, Alpha (dipole orientation).
 (esu units = cm**3 , SI units = C**2 m**2 J**-1)
 Alpha(0;0):
               (au)            (10**-24 esu)      (10**-40 SI)
   iso        0.499439D+03      0.740092D+02      0.823464D+02
   aniso      0.879742D+02      0.130364D+02      0.145050D+02
   xx         0.510060D+03      0.755831D+02      0.840975D+02
   yx         0.350275D+02      0.519053D+01      0.577525D+01
   yy         0.481284D+03      0.713190D+02      0.793530D+02
   zx        -0.516194D+01     -0.764920D+00     -0.851088D+00
   zy        -0.328126D+02     -0.486233D+01     -0.541007D+01
   zz         0.506973D+03      0.751256D+02      0.835885D+02

 ----------------------------------------------------------------------

 This type of calculation cannot be archived.


 REPARTEE - WHAT YOU THINK OF AFTER YOU BECOME A DEPARTEE.
 Job cpu time:       0 days  0 hours  0 minutes  2.6 seconds.
 Elapsed time:       0 days  0 hours  0 minutes  0.7 seconds.
 File lengths (MBytes):  RWF=     10 Int=      0 D2E=      0 Chk=     12 Scr=      1
 Normal termination of Gaussian 16 at Sat Apr  4 18:13:12 2020.
