 Entering Gaussian System, Link 0=g16
 Input=cyclic_2_intr_3.gjf
 Output=cyclic_2_intr_3.log
 Initial command:
 /apps/cent7/gaussian/g16-A.03/g16-haswell/g16/l1.exe "/scratch/brown/finej/0051_imine_mechanism/ts_631gd/cyclic_complete_2/new_logs_2/Gau-65455.inp" -scrdir="/scratch/brown/finej/0051_imine_mechanism/ts_631gd/cyclic_complete_2/new_logs_2/"
 Entering Link 1 = /apps/cent7/gaussian/g16-A.03/g16-haswell/g16/l1.exe PID=     65456.
  
 Copyright (c) 1988,1990,1992,1993,1995,1998,2003,2009,2016,
            Gaussian, Inc.  All Rights Reserved.
  
 This is part of the Gaussian(R) 16 program.  It is based on
 the Gaussian(R) 09 system (copyright 2009, Gaussian, Inc.),
 the Gaussian(R) 03 system (copyright 2003, Gaussian, Inc.),
 the Gaussian(R) 98 system (copyright 1998, Gaussian, Inc.),
 the Gaussian(R) 94 system (copyright 1995, Gaussian, Inc.),
 the Gaussian 92(TM) system (copyright 1992, Gaussian, Inc.),
 the Gaussian 90(TM) system (copyright 1990, Gaussian, Inc.),
 the Gaussian 88(TM) system (copyright 1988, Gaussian, Inc.),
 the Gaussian 86(TM) system (copyright 1986, Carnegie Mellon
 University), and the Gaussian 82(TM) system (copyright 1983,
 Carnegie Mellon University). Gaussian is a federally registered
 trademark of Gaussian, Inc.
  
 This software contains proprietary and confidential information,
 including trade secrets, belonging to Gaussian, Inc.
  
 This software is provided under written license and may be
 used, copied, transmitted, or stored only in accord with that
 written license.
  
 The following legend is applicable only to US Government
 contracts under FAR:
  
                    RESTRICTED RIGHTS LEGEND
  
 Use, reproduction and disclosure by the US Government is
 subject to restrictions as set forth in subparagraphs (a)
 and (c) of the Commercial Computer Software - Restricted
 Rights clause in FAR 52.227-19.
  
 Gaussian, Inc.
 340 Quinnipiac St., Bldg. 40, Wallingford CT 06492
  
  
 ---------------------------------------------------------------
 Warning -- This program may not be used in any manner that
 competes with the business of Gaussian, Inc. or will provide
 assistance to any competitor of Gaussian, Inc.  The licensee
 of this program is prohibited from giving any competitor of
 Gaussian, Inc. access to this program.  By using this program,
 the user acknowledges that Gaussian, Inc. is engaged in the
 business of creating and licensing software in the field of
 computational chemistry and represents and warrants to the
 licensee that it is not a competitor of Gaussian, Inc. and that
 it will not use this program in any manner prohibited above.
 ---------------------------------------------------------------
  

 Cite this work as:
 Gaussian 16, Revision A.03,
 M. J. Frisch, G. W. Trucks, H. B. Schlegel, G. E. Scuseria, 
 M. A. Robb, J. R. Cheeseman, G. Scalmani, V. Barone, 
 G. A. Petersson, H. Nakatsuji, X. Li, M. Caricato, A. V. Marenich, 
 J. Bloino, B. G. Janesko, R. Gomperts, B. Mennucci, H. P. Hratchian, 
 J. V. Ortiz, A. F. Izmaylov, J. L. Sonnenberg, D. Williams-Young, 
 F. Ding, F. Lipparini, F. Egidi, J. Goings, B. Peng, A. Petrone, 
 T. Henderson, D. Ranasinghe, V. G. Zakrzewski, J. Gao, N. Rega, 
 G. Zheng, W. Liang, M. Hada, M. Ehara, K. Toyota, R. Fukuda, 
 J. Hasegawa, M. Ishida, T. Nakajima, Y. Honda, O. Kitao, H. Nakai, 
 T. Vreven, K. Throssell, J. A. Montgomery, Jr., J. E. Peralta, 
 F. Ogliaro, M. J. Bearpark, J. J. Heyd, E. N. Brothers, K. N. Kudin, 
 V. N. Staroverov, T. A. Keith, R. Kobayashi, J. Normand, 
 K. Raghavachari, A. P. Rendell, J. C. Burant, S. S. Iyengar, 
 J. Tomasi, M. Cossi, J. M. Millam, M. Klene, C. Adamo, R. Cammi, 
 J. W. Ochterski, R. L. Martin, K. Morokuma, O. Farkas, 
 J. B. Foresman, and D. J. Fox, Gaussian, Inc., Wallingford CT, 2016.
 
 ******************************************
 Gaussian 16:  ES64L-G16RevA.03 25-Dec-2016
                 4-Apr-2020 
 ******************************************
 %nprocshared=4
 Will use up to    4 processors via shared memory.
 %mem=1GB
 %oldchk=chk/cyclic_2_intr_3.chk
 Copying data from "chk/cyclic_2_intr_3.chk" to current chk file "/scratch/brown/finej/0051_imine_mechanism/ts_631gd/cyclic_complete_2/new_logs_2/Gau-65456.chk"
 IOpt=  2 FromEx=T IUOpen= 4 IOptOp= 5 NList=   0 IFRang= 0 IUIn= 4 IUOut= 2.
 ----------------------------------------------------------------------
 # freq=readfc wb97xd/6-31g(d) scrf=solvent=dichloromethane geom=check 
 temperature=263.15
 ----------------------------------------------------------------------
 1/29=2,38=1,112=263150,172=1/1;
 2/12=2,40=1/2;
 7/8=1,25=11/16;
 99/5=2/99;
 ----------------------------------------------------------
 Interaction between intermediate 1 and the carboxylic acid
 ----------------------------------------------------------
 Structure from the checkpoint file:  "/scratch/brown/finej/0051_imine_mechanism/ts_631gd/cyclic_complete_2/new_logs_2/Gau-65456.chk"
 Charge =  0 Multiplicity = 1
 Redundant internal coordinates found in file.  (old form).
 C,0,-3.2646479924,-1.296041657,-2.6328285024
 C,0,-4.1354906746,-0.9336292972,-3.6519404418
 C,0,-5.3251316219,-0.2776481533,-3.3421180536
 C,0,-5.6433787752,-0.0002064754,-2.019426074
 C,0,-4.7605779777,-0.3660042179,-1.0117431743
 C,0,-3.5556788016,-1.0057308359,-1.3007281419
 C,0,-2.5946862671,-1.4325945688,-0.1916853921
 O,0,-4.7337367772,-0.1533102106,2.6805999362
 O,0,-4.9679911643,-2.2772592584,1.340910236
 S,0,-4.482160141,-0.9208023492,1.4885197017
 N,0,-2.8983507363,-0.8728248233,1.1333747745
 O,0,-5.1498206256,-0.0334635915,0.2819108411
 C,0,0.3464305694,3.4215096019,1.4161081929
 C,0,1.3119270494,4.4205232797,1.3269136101
 C,0,1.4732653184,5.1299761173,0.1381871061
 C,0,0.670850745,4.8311070915,-0.9626896037
 C,0,-0.2898934512,3.8278138848,-0.8708642306
 O,0,-1.5672209553,1.3810717955,1.5007067613
 C,0,-0.4604225039,3.1160562095,0.3180504073
 C,0,-1.4956817246,2.0081877878,0.3896193795
 O,0,-2.16747282,1.7527221795,-0.6250046028
 C,0,-1.2281616853,-1.0128992698,-0.5260139247
 N,0,-0.1694576338,-0.5803609009,-0.6638045867
 C,0,2.171676893,-0.7389182007,1.5576089893
 N,0,0.9164197753,0.0646100555,-0.8937883848
 C,0,3.5242606701,0.7181145197,-0.6263280821
 C,0,2.7803891398,-2.12239963,-0.9468523037
 P,0,2.3066170442,-0.5390849649,-0.2292717529
 C,0,3.1592900891,-1.4421979011,2.2604309554
 C,0,3.0843315248,-1.5331848126,3.6442148646
 C,0,2.0283052725,-0.9288870802,4.3266627394
 C,0,1.0499183112,-0.2301863759,3.6263006972
 C,0,1.1177112324,-0.1246588148,2.2397331045
 C,0,4.8868075711,0.4004601317,-0.5782759494
 C,0,5.8315651485,1.3927518154,-0.8093805125
 C,0,5.4193612462,2.6960946614,-1.0817680452
 C,0,4.0637091563,3.0111167673,-1.1180785516
 C,0,3.1080107205,2.0276134228,-0.8852725232
 C,0,2.3574230454,-3.3152339875,-0.3474120786
 C,0,2.6168770397,-4.531108521,-0.9706757867
 C,0,3.2908875263,-4.5599856963,-2.1889170264
 C,0,3.7016399879,-3.3734938136,-2.7940298229
 C,0,3.4428980364,-2.1538658025,-2.1809235217
 H,0,-2.3349950493,-1.8051391741,-2.8747512291
 H,0,-3.8858240175,-1.1609495548,-4.6826537607
 H,0,-6.0123002449,0.0125925529,-4.1299489091
 H,0,-6.5671379074,0.4990536724,-1.7485834219
 H,0,-2.5944489508,-2.5272424887,-0.1170908172
 H,0,-2.4608636681,0.0997454605,1.3022231589
 H,0,0.2063599216,2.8671611258,2.3381548484
 H,0,1.9372687313,4.648393818,2.1853229087
 H,0,2.2233478921,5.9129448106,0.0689322441
 H,0,0.7947549198,5.3810683022,-1.8913618079
 H,0,-0.9219731281,3.5777933213,-1.7166367941
 H,0,3.9783913106,-1.924697411,1.734669419
 H,0,3.847416525,-2.0783445837,4.1898457084
 H,0,1.9704878146,-1.0062868349,5.4078486286
 H,0,0.2241088229,0.2382658346,4.1518260954
 H,0,0.3392468423,0.4320353475,1.7217536396
 H,0,5.214535766,-0.6146474204,-0.37340633
 H,0,6.8879333464,1.1475122176,-0.7792302879
 H,0,6.1595521816,3.4688815173,-1.2640148697
 H,0,3.7402661968,4.0260782503,-1.3229120581
 H,0,2.0516686922,2.2768401314,-0.9066578917
 H,0,1.8351266941,-3.2995207039,0.6040854811
 H,0,2.2936614684,-5.4547981032,-0.5024922157
 H,0,3.4953128024,-5.5107825249,-2.6707609143
 H,0,4.2235185612,-3.3974286501,-3.7448221617
 H,0,3.7599199744,-1.2321932978,-2.6590245821
 Recover connectivity data from disk.
                           ----------------------------
                           !    Current Parameters    !
                           ! (Angstroms and Degrees)  !
 --------------------------                            --------------------------
 ! Name  Definition              Value          Derivative Info.                !
 --------------------------------------------------------------------------------
 ! R1    R(1,2)                  1.3886         estimate D2E/DX2                !
 ! R2    R(1,6)                  1.3941         estimate D2E/DX2                !
 ! R3    R(1,44)                 1.0872         estimate D2E/DX2                !
 ! R4    R(2,3)                  1.3934         estimate D2E/DX2                !
 ! R5    R(2,45)                 1.0846         estimate D2E/DX2                !
 ! R6    R(3,4)                  1.3884         estimate D2E/DX2                !
 ! R7    R(3,46)                 1.085          estimate D2E/DX2                !
 ! R8    R(4,5)                  1.3887         estimate D2E/DX2                !
 ! R9    R(4,47)                 1.0844         estimate D2E/DX2                !
 ! R10   R(5,6)                  1.3945         estimate D2E/DX2                !
 ! R11   R(5,12)                 1.3913         estimate D2E/DX2                !
 ! R12   R(6,7)                  1.5283         estimate D2E/DX2                !
 ! R13   R(7,11)                 1.4701         estimate D2E/DX2                !
 ! R14   R(7,22)                 1.4681         estimate D2E/DX2                !
 ! R15   R(7,48)                 1.0972         estimate D2E/DX2                !
 ! R16   R(8,10)                 1.4399         estimate D2E/DX2                !
 ! R17   R(9,10)                 1.4484         estimate D2E/DX2                !
 ! R18   R(10,11)                1.6238         estimate D2E/DX2                !
 ! R19   R(10,12)                1.6398         estimate D2E/DX2                !
 ! R20   R(11,49)                1.0797         estimate D2E/DX2                !
 ! R21   R(13,14)                1.3922         estimate D2E/DX2                !
 ! R22   R(13,19)                1.3964         estimate D2E/DX2                !
 ! R23   R(13,50)                1.0849         estimate D2E/DX2                !
 ! R24   R(14,15)                1.3937         estimate D2E/DX2                !
 ! R25   R(14,51)                1.0862         estimate D2E/DX2                !
 ! R26   R(15,16)                1.3947         estimate D2E/DX2                !
 ! R27   R(15,52)                1.0865         estimate D2E/DX2                !
 ! R28   R(16,17)                1.3921         estimate D2E/DX2                !
 ! R29   R(16,53)                1.0864         estimate D2E/DX2                !
 ! R30   R(17,19)                1.3961         estimate D2E/DX2                !
 ! R31   R(17,54)                1.0851         estimate D2E/DX2                !
 ! R32   R(18,20)                1.2779         estimate D2E/DX2                !
 ! R33   R(18,49)                1.5747         estimate D2E/DX2                !
 ! R34   R(19,20)                1.518          estimate D2E/DX2                !
 ! R35   R(20,21)                1.2434         estimate D2E/DX2                !
 ! R36   R(22,23)                1.1519         estimate D2E/DX2                !
 ! R37   R(23,25)                1.2837         estimate D2E/DX2                !
 ! R38   R(24,28)                1.8031         estimate D2E/DX2                !
 ! R39   R(24,29)                1.4014         estimate D2E/DX2                !
 ! R40   R(24,33)                1.3977         estimate D2E/DX2                !
 ! R41   R(25,28)                1.6549         estimate D2E/DX2                !
 ! R42   R(26,28)                1.7947         estimate D2E/DX2                !
 ! R43   R(26,34)                1.3999         estimate D2E/DX2                !
 ! R44   R(26,38)                1.3983         estimate D2E/DX2                !
 ! R45   R(27,28)                1.8017         estimate D2E/DX2                !
 ! R46   R(27,39)                1.4004         estimate D2E/DX2                !
 ! R47   R(27,43)                1.401          estimate D2E/DX2                !
 ! R48   R(29,30)                1.3888         estimate D2E/DX2                !
 ! R49   R(29,55)                1.0864         estimate D2E/DX2                !
 ! R50   R(30,31)                1.395          estimate D2E/DX2                !
 ! R51   R(30,56)                1.085          estimate D2E/DX2                !
 ! R52   R(31,32)                1.3914         estimate D2E/DX2                !
 ! R53   R(31,57)                1.0855         estimate D2E/DX2                !
 ! R54   R(32,33)                1.3922         estimate D2E/DX2                !
 ! R55   R(32,58)                1.0852         estimate D2E/DX2                !
 ! R56   R(33,59)                1.0882         estimate D2E/DX2                !
 ! R57   R(34,35)                1.3895         estimate D2E/DX2                !
 ! R58   R(34,60)                1.0862         estimate D2E/DX2                !
 ! R59   R(35,36)                1.3938         estimate D2E/DX2                !
 ! R60   R(35,61)                1.0849         estimate D2E/DX2                !
 ! R61   R(36,37)                1.3922         estimate D2E/DX2                !
 ! R62   R(36,62)                1.0855         estimate D2E/DX2                !
 ! R63   R(37,38)                1.391          estimate D2E/DX2                !
 ! R64   R(37,63)                1.0848         estimate D2E/DX2                !
 ! R65   R(38,64)                1.0856         estimate D2E/DX2                !
 ! R66   R(39,40)                1.3907         estimate D2E/DX2                !
 ! R67   R(39,65)                1.0855         estimate D2E/DX2                !
 ! R68   R(40,41)                1.3926         estimate D2E/DX2                !
 ! R69   R(40,66)                1.0848         estimate D2E/DX2                !
 ! R70   R(41,42)                1.3938         estimate D2E/DX2                !
 ! R71   R(41,67)                1.0853         estimate D2E/DX2                !
 ! R72   R(42,43)                1.3894         estimate D2E/DX2                !
 ! R73   R(42,68)                1.0849         estimate D2E/DX2                !
 ! R74   R(43,69)                1.0856         estimate D2E/DX2                !
 ! A1    A(2,1,6)              121.0642         estimate D2E/DX2                !
 ! A2    A(2,1,44)             119.6802         estimate D2E/DX2                !
 ! A3    A(6,1,44)             119.2524         estimate D2E/DX2                !
 ! A4    A(1,2,3)              119.6766         estimate D2E/DX2                !
 ! A5    A(1,2,45)             119.8923         estimate D2E/DX2                !
 ! A6    A(3,2,45)             120.4311         estimate D2E/DX2                !
 ! A7    A(2,3,4)              120.1051         estimate D2E/DX2                !
 ! A8    A(2,3,46)             120.3466         estimate D2E/DX2                !
 ! A9    A(4,3,46)             119.5464         estimate D2E/DX2                !
 ! A10   A(3,4,5)              119.5322         estimate D2E/DX2                !
 ! A11   A(3,4,47)             121.6807         estimate D2E/DX2                !
 ! A12   A(5,4,47)             118.787          estimate D2E/DX2                !
 ! A13   A(4,5,6)              121.3146         estimate D2E/DX2                !
 ! A14   A(4,5,12)             115.715          estimate D2E/DX2                !
 ! A15   A(6,5,12)             122.9625         estimate D2E/DX2                !
 ! A16   A(1,6,5)              118.2902         estimate D2E/DX2                !
 ! A17   A(1,6,7)              120.2633         estimate D2E/DX2                !
 ! A18   A(5,6,7)              121.4038         estimate D2E/DX2                !
 ! A19   A(6,7,11)             114.6974         estimate D2E/DX2                !
 ! A20   A(6,7,22)             109.8885         estimate D2E/DX2                !
 ! A21   A(6,7,48)             109.1555         estimate D2E/DX2                !
 ! A22   A(11,7,22)            106.7782         estimate D2E/DX2                !
 ! A23   A(11,7,48)            108.5809         estimate D2E/DX2                !
 ! A24   A(22,7,48)            107.4875         estimate D2E/DX2                !
 ! A25   A(8,10,9)             121.6647         estimate D2E/DX2                !
 ! A26   A(8,10,11)            109.6163         estimate D2E/DX2                !
 ! A27   A(8,10,12)            104.4543         estimate D2E/DX2                !
 ! A28   A(9,10,11)            109.4231         estimate D2E/DX2                !
 ! A29   A(9,10,12)            107.1703         estimate D2E/DX2                !
 ! A30   A(11,10,12)           102.7207         estimate D2E/DX2                !
 ! A31   A(7,11,10)            112.7886         estimate D2E/DX2                !
 ! A32   A(7,11,49)            113.5924         estimate D2E/DX2                !
 ! A33   A(10,11,49)           112.8057         estimate D2E/DX2                !
 ! A34   A(5,12,10)            116.1637         estimate D2E/DX2                !
 ! A35   A(14,13,19)           120.4836         estimate D2E/DX2                !
 ! A36   A(14,13,50)           120.7062         estimate D2E/DX2                !
 ! A37   A(19,13,50)           118.8101         estimate D2E/DX2                !
 ! A38   A(13,14,15)           120.0138         estimate D2E/DX2                !
 ! A39   A(13,14,51)           119.9452         estimate D2E/DX2                !
 ! A40   A(15,14,51)           120.0407         estimate D2E/DX2                !
 ! A41   A(14,15,16)           119.8388         estimate D2E/DX2                !
 ! A42   A(14,15,52)           120.0741         estimate D2E/DX2                !
 ! A43   A(16,15,52)           120.0869         estimate D2E/DX2                !
 ! A44   A(15,16,17)           119.9621         estimate D2E/DX2                !
 ! A45   A(15,16,53)           120.043          estimate D2E/DX2                !
 ! A46   A(17,16,53)           119.9949         estimate D2E/DX2                !
 ! A47   A(16,17,19)           120.5221         estimate D2E/DX2                !
 ! A48   A(16,17,54)           121.1084         estimate D2E/DX2                !
 ! A49   A(19,17,54)           118.3693         estimate D2E/DX2                !
 ! A50   A(20,18,49)           108.7534         estimate D2E/DX2                !
 ! A51   A(13,19,17)           119.1783         estimate D2E/DX2                !
 ! A52   A(13,19,20)           121.1059         estimate D2E/DX2                !
 ! A53   A(17,19,20)           119.7043         estimate D2E/DX2                !
 ! A54   A(18,20,19)           115.9347         estimate D2E/DX2                !
 ! A55   A(18,20,21)           125.341          estimate D2E/DX2                !
 ! A56   A(19,20,21)           118.6823         estimate D2E/DX2                !
 ! A57   A(28,24,29)           119.9923         estimate D2E/DX2                !
 ! A58   A(28,24,33)           119.432          estimate D2E/DX2                !
 ! A59   A(29,24,33)           120.4791         estimate D2E/DX2                !
 ! A60   A(23,25,28)           117.0878         estimate D2E/DX2                !
 ! A61   A(28,26,34)           119.5919         estimate D2E/DX2                !
 ! A62   A(28,26,38)           119.6728         estimate D2E/DX2                !
 ! A63   A(34,26,38)           120.5715         estimate D2E/DX2                !
 ! A64   A(28,27,39)           119.909          estimate D2E/DX2                !
 ! A65   A(28,27,43)           119.6628         estimate D2E/DX2                !
 ! A66   A(39,27,43)           120.0491         estimate D2E/DX2                !
 ! A67   A(24,28,25)           112.0552         estimate D2E/DX2                !
 ! A68   A(24,28,26)           110.3447         estimate D2E/DX2                !
 ! A69   A(24,28,27)           108.4803         estimate D2E/DX2                !
 ! A70   A(25,28,26)           103.0365         estimate D2E/DX2                !
 ! A71   A(25,28,27)           112.429          estimate D2E/DX2                !
 ! A72   A(26,28,27)           110.4305         estimate D2E/DX2                !
 ! A73   A(24,29,30)           119.6396         estimate D2E/DX2                !
 ! A74   A(24,29,55)           120.7661         estimate D2E/DX2                !
 ! A75   A(30,29,55)           119.592          estimate D2E/DX2                !
 ! A76   A(29,30,31)           119.9942         estimate D2E/DX2                !
 ! A77   A(29,30,56)           119.7378         estimate D2E/DX2                !
 ! A78   A(31,30,56)           120.2676         estimate D2E/DX2                !
 ! A79   A(30,31,32)           120.2375         estimate D2E/DX2                !
 ! A80   A(30,31,57)           119.7814         estimate D2E/DX2                !
 ! A81   A(32,31,57)           119.9811         estimate D2E/DX2                !
 ! A82   A(31,32,33)           120.3403         estimate D2E/DX2                !
 ! A83   A(31,32,58)           120.5393         estimate D2E/DX2                !
 ! A84   A(33,32,58)           119.1204         estimate D2E/DX2                !
 ! A85   A(24,33,32)           119.3058         estimate D2E/DX2                !
 ! A86   A(24,33,59)           122.1386         estimate D2E/DX2                !
 ! A87   A(32,33,59)           118.5545         estimate D2E/DX2                !
 ! A88   A(26,34,35)           119.6063         estimate D2E/DX2                !
 ! A89   A(26,34,60)           120.8107         estimate D2E/DX2                !
 ! A90   A(35,34,60)           119.5796         estimate D2E/DX2                !
 ! A91   A(34,35,36)           119.9474         estimate D2E/DX2                !
 ! A92   A(34,35,61)           119.7367         estimate D2E/DX2                !
 ! A93   A(36,35,61)           120.3157         estimate D2E/DX2                !
 ! A94   A(35,36,37)           120.3069         estimate D2E/DX2                !
 ! A95   A(35,36,62)           119.7917         estimate D2E/DX2                !
 ! A96   A(37,36,62)           119.9012         estimate D2E/DX2                !
 ! A97   A(36,37,38)           120.3086         estimate D2E/DX2                !
 ! A98   A(36,37,63)           120.4618         estimate D2E/DX2                !
 ! A99   A(38,37,63)           119.2288         estimate D2E/DX2                !
 ! A100  A(26,38,37)           119.251          estimate D2E/DX2                !
 ! A101  A(26,38,64)           120.5535         estimate D2E/DX2                !
 ! A102  A(37,38,64)           120.1954         estimate D2E/DX2                !
 ! A103  A(27,39,40)           119.7696         estimate D2E/DX2                !
 ! A104  A(27,39,65)           120.5434         estimate D2E/DX2                !
 ! A105  A(40,39,65)           119.6853         estimate D2E/DX2                !
 ! A106  A(39,40,41)           120.0318         estimate D2E/DX2                !
 ! A107  A(39,40,66)           119.6967         estimate D2E/DX2                !
 ! A108  A(41,40,66)           120.2713         estimate D2E/DX2                !
 ! A109  A(40,41,42)           120.3173         estimate D2E/DX2                !
 ! A110  A(40,41,67)           119.8485         estimate D2E/DX2                !
 ! A111  A(42,41,67)           119.8341         estimate D2E/DX2                !
 ! A112  A(41,42,43)           120.0533         estimate D2E/DX2                !
 ! A113  A(41,42,68)           120.2306         estimate D2E/DX2                !
 ! A114  A(43,42,68)           119.716          estimate D2E/DX2                !
 ! A115  A(27,43,42)           119.7675         estimate D2E/DX2                !
 ! A116  A(27,43,69)           120.4603         estimate D2E/DX2                !
 ! A117  A(42,43,69)           119.7715         estimate D2E/DX2                !
 ! A118  A(11,49,18)           169.289          estimate D2E/DX2                !
 ! A119  L(7,22,23,18,-1)      172.0396         estimate D2E/DX2                !
 ! A120  L(22,23,25,18,-1)     175.9696         estimate D2E/DX2                !
 ! A121  L(7,22,23,18,-2)      178.6099         estimate D2E/DX2                !
 ! A122  L(22,23,25,18,-2)     188.3233         estimate D2E/DX2                !
 ! D1    D(6,1,2,3)             -0.4683         estimate D2E/DX2                !
 ! D2    D(6,1,2,45)           179.4437         estimate D2E/DX2                !
 ! D3    D(44,1,2,3)          -179.8125         estimate D2E/DX2                !
 ! D4    D(44,1,2,45)            0.0994         estimate D2E/DX2                !
 ! D5    D(2,1,6,5)              1.376          estimate D2E/DX2                !
 ! D6    D(2,1,6,7)            179.033          estimate D2E/DX2                !
 ! D7    D(44,1,6,5)          -179.277          estimate D2E/DX2                !
 ! D8    D(44,1,6,7)            -1.62           estimate D2E/DX2                !
 ! D9    D(1,2,3,4)             -0.6412         estimate D2E/DX2                !
 ! D10   D(1,2,3,46)           179.8531         estimate D2E/DX2                !
 ! D11   D(45,2,3,4)           179.4473         estimate D2E/DX2                !
 ! D12   D(45,2,3,46)           -0.0584         estimate D2E/DX2                !
 ! D13   D(2,3,4,5)              0.8029         estimate D2E/DX2                !
 ! D14   D(2,3,4,47)          -179.3106         estimate D2E/DX2                !
 ! D15   D(46,3,4,5)          -179.6875         estimate D2E/DX2                !
 ! D16   D(46,3,4,47)            0.199          estimate D2E/DX2                !
 ! D17   D(3,4,5,6)              0.1383         estimate D2E/DX2                !
 ! D18   D(3,4,5,12)           179.1406         estimate D2E/DX2                !
 ! D19   D(47,4,5,6)          -179.7515         estimate D2E/DX2                !
 ! D20   D(47,4,5,12)           -0.7491         estimate D2E/DX2                !
 ! D21   D(4,5,6,1)             -1.2128         estimate D2E/DX2                !
 ! D22   D(4,5,6,7)           -178.8418         estimate D2E/DX2                !
 ! D23   D(12,5,6,1)           179.8585         estimate D2E/DX2                !
 ! D24   D(12,5,6,7)             2.2295         estimate D2E/DX2                !
 ! D25   D(4,5,12,10)          156.925          estimate D2E/DX2                !
 ! D26   D(6,5,12,10)          -24.0908         estimate D2E/DX2                !
 ! D27   D(1,6,7,11)           170.1197         estimate D2E/DX2                !
 ! D28   D(1,6,7,22)            49.8375         estimate D2E/DX2                !
 ! D29   D(1,6,7,48)           -67.8049         estimate D2E/DX2                !
 ! D30   D(5,6,7,11)           -12.2975         estimate D2E/DX2                !
 ! D31   D(5,6,7,22)          -132.5797         estimate D2E/DX2                !
 ! D32   D(5,6,7,48)           109.7778         estimate D2E/DX2                !
 ! D33   D(6,7,11,10)           43.441          estimate D2E/DX2                !
 ! D34   D(6,7,11,49)          -86.5191         estimate D2E/DX2                !
 ! D35   D(22,7,11,10)         165.4296         estimate D2E/DX2                !
 ! D36   D(22,7,11,49)          35.4696         estimate D2E/DX2                !
 ! D37   D(48,7,11,10)         -78.9458         estimate D2E/DX2                !
 ! D38   D(48,7,11,49)         151.0941         estimate D2E/DX2                !
 ! D39   D(6,7,25,28)         -159.6555         estimate D2E/DX2                !
 ! D40   D(11,7,25,28)          78.713          estimate D2E/DX2                !
 ! D41   D(48,7,25,28)         -37.6619         estimate D2E/DX2                !
 ! D42   D(8,10,11,7)         -169.9744         estimate D2E/DX2                !
 ! D43   D(8,10,11,49)         -39.6148         estimate D2E/DX2                !
 ! D44   D(9,10,11,7)           54.2516         estimate D2E/DX2                !
 ! D45   D(9,10,11,49)        -175.3888         estimate D2E/DX2                !
 ! D46   D(12,10,11,7)         -59.358          estimate D2E/DX2                !
 ! D47   D(12,10,11,49)         71.0016         estimate D2E/DX2                !
 ! D48   D(8,10,12,5)          164.1316         estimate D2E/DX2                !
 ! D49   D(9,10,12,5)          -65.5496         estimate D2E/DX2                !
 ! D50   D(11,10,12,5)          49.7            estimate D2E/DX2                !
 ! D51   D(7,11,49,18)         -59.2621         estimate D2E/DX2                !
 ! D52   D(10,11,49,18)        170.7864         estimate D2E/DX2                !
 ! D53   D(19,13,14,15)          0.4027         estimate D2E/DX2                !
 ! D54   D(19,13,14,51)       -179.7722         estimate D2E/DX2                !
 ! D55   D(50,13,14,15)       -179.5545         estimate D2E/DX2                !
 ! D56   D(50,13,14,51)          0.2707         estimate D2E/DX2                !
 ! D57   D(14,13,19,17)         -0.1793         estimate D2E/DX2                !
 ! D58   D(14,13,19,20)        178.5837         estimate D2E/DX2                !
 ! D59   D(50,13,19,17)        179.7787         estimate D2E/DX2                !
 ! D60   D(50,13,19,20)         -1.4583         estimate D2E/DX2                !
 ! D61   D(13,14,15,16)         -0.3725         estimate D2E/DX2                !
 ! D62   D(13,14,15,52)        179.7178         estimate D2E/DX2                !
 ! D63   D(51,14,15,16)        179.8025         estimate D2E/DX2                !
 ! D64   D(51,14,15,52)         -0.1072         estimate D2E/DX2                !
 ! D65   D(14,15,16,17)          0.1224         estimate D2E/DX2                !
 ! D66   D(14,15,16,53)       -179.9126         estimate D2E/DX2                !
 ! D67   D(52,15,16,17)       -179.9679         estimate D2E/DX2                !
 ! D68   D(52,15,16,53)         -0.0028         estimate D2E/DX2                !
 ! D69   D(15,16,17,19)          0.1006         estimate D2E/DX2                !
 ! D70   D(15,16,17,54)       -179.8012         estimate D2E/DX2                !
 ! D71   D(53,16,17,19)       -179.8646         estimate D2E/DX2                !
 ! D72   D(53,16,17,54)          0.2337         estimate D2E/DX2                !
 ! D73   D(16,17,19,13)         -0.0725         estimate D2E/DX2                !
 ! D74   D(16,17,19,20)       -178.8531         estimate D2E/DX2                !
 ! D75   D(54,17,19,13)        179.8319         estimate D2E/DX2                !
 ! D76   D(54,17,19,20)          1.0513         estimate D2E/DX2                !
 ! D77   D(49,18,20,19)       -168.4565         estimate D2E/DX2                !
 ! D78   D(49,18,20,21)          9.1442         estimate D2E/DX2                !
 ! D79   D(20,18,49,11)         94.1945         estimate D2E/DX2                !
 ! D80   D(13,19,20,18)         -0.5131         estimate D2E/DX2                !
 ! D81   D(13,19,20,21)       -178.2822         estimate D2E/DX2                !
 ! D82   D(17,19,20,18)        178.2435         estimate D2E/DX2                !
 ! D83   D(17,19,20,21)          0.4744         estimate D2E/DX2                !
 ! D84   D(29,24,28,25)        169.2975         estimate D2E/DX2                !
 ! D85   D(29,24,28,26)        -76.51           estimate D2E/DX2                !
 ! D86   D(29,24,28,27)         44.5854         estimate D2E/DX2                !
 ! D87   D(33,24,28,25)        -14.2569         estimate D2E/DX2                !
 ! D88   D(33,24,28,26)         99.9356         estimate D2E/DX2                !
 ! D89   D(33,24,28,27)       -138.969          estimate D2E/DX2                !
 ! D90   D(28,24,29,30)        176.7111         estimate D2E/DX2                !
 ! D91   D(28,24,29,55)         -3.8341         estimate D2E/DX2                !
 ! D92   D(33,24,29,30)          0.3032         estimate D2E/DX2                !
 ! D93   D(33,24,29,55)        179.758          estimate D2E/DX2                !
 ! D94   D(28,24,33,32)       -177.1113         estimate D2E/DX2                !
 ! D95   D(28,24,33,59)          3.2712         estimate D2E/DX2                !
 ! D96   D(29,24,33,32)         -0.6834         estimate D2E/DX2                !
 ! D97   D(29,24,33,59)        179.6991         estimate D2E/DX2                !
 ! D98   D(23,25,28,24)        -55.4884         estimate D2E/DX2                !
 ! D99   D(23,25,28,26)       -174.0987         estimate D2E/DX2                !
 ! D100  D(23,25,28,27)         67.0066         estimate D2E/DX2                !
 ! D101  D(34,26,28,24)         78.8254         estimate D2E/DX2                !
 ! D102  D(34,26,28,25)       -161.3773         estimate D2E/DX2                !
 ! D103  D(34,26,28,27)        -41.101          estimate D2E/DX2                !
 ! D104  D(38,26,28,24)        -96.5502         estimate D2E/DX2                !
 ! D105  D(38,26,28,25)         23.2471         estimate D2E/DX2                !
 ! D106  D(38,26,28,27)        143.5235         estimate D2E/DX2                !
 ! D107  D(28,26,34,35)       -176.2696         estimate D2E/DX2                !
 ! D108  D(28,26,34,60)          4.414          estimate D2E/DX2                !
 ! D109  D(38,26,34,35)         -0.9364         estimate D2E/DX2                !
 ! D110  D(38,26,34,60)        179.7473         estimate D2E/DX2                !
 ! D111  D(28,26,38,37)        176.4163         estimate D2E/DX2                !
 ! D112  D(28,26,38,64)         -3.6813         estimate D2E/DX2                !
 ! D113  D(34,26,38,37)          1.0869         estimate D2E/DX2                !
 ! D114  D(34,26,38,64)       -179.0108         estimate D2E/DX2                !
 ! D115  D(39,27,28,24)         31.7263         estimate D2E/DX2                !
 ! D116  D(39,27,28,25)        -92.7642         estimate D2E/DX2                !
 ! D117  D(39,27,28,26)        152.7688         estimate D2E/DX2                !
 ! D118  D(43,27,28,24)       -155.3363         estimate D2E/DX2                !
 ! D119  D(43,27,28,25)         80.1733         estimate D2E/DX2                !
 ! D120  D(43,27,28,26)        -34.2938         estimate D2E/DX2                !
 ! D121  D(28,27,39,40)        173.9655         estimate D2E/DX2                !
 ! D122  D(28,27,39,65)         -6.5106         estimate D2E/DX2                !
 ! D123  D(43,27,39,40)          1.0556         estimate D2E/DX2                !
 ! D124  D(43,27,39,65)       -179.4205         estimate D2E/DX2                !
 ! D125  D(28,27,43,42)       -174.1958         estimate D2E/DX2                !
 ! D126  D(28,27,43,69)          6.1136         estimate D2E/DX2                !
 ! D127  D(39,27,43,42)         -1.2684         estimate D2E/DX2                !
 ! D128  D(39,27,43,69)        179.041          estimate D2E/DX2                !
 ! D129  D(24,29,30,31)          0.1453         estimate D2E/DX2                !
 ! D130  D(24,29,30,56)        179.9231         estimate D2E/DX2                !
 ! D131  D(55,29,30,31)       -179.3159         estimate D2E/DX2                !
 ! D132  D(55,29,30,56)          0.4619         estimate D2E/DX2                !
 ! D133  D(29,30,31,32)         -0.2092         estimate D2E/DX2                !
 ! D134  D(29,30,31,57)        179.7019         estimate D2E/DX2                !
 ! D135  D(56,30,31,32)       -179.9858         estimate D2E/DX2                !
 ! D136  D(56,30,31,57)         -0.0747         estimate D2E/DX2                !
 ! D137  D(30,31,32,33)         -0.1775         estimate D2E/DX2                !
 ! D138  D(30,31,32,58)        179.7451         estimate D2E/DX2                !
 ! D139  D(57,31,32,33)        179.9116         estimate D2E/DX2                !
 ! D140  D(57,31,32,58)         -0.1659         estimate D2E/DX2                !
 ! D141  D(31,32,33,24)          0.6193         estimate D2E/DX2                !
 ! D142  D(31,32,33,59)       -179.7494         estimate D2E/DX2                !
 ! D143  D(58,32,33,24)       -179.3043         estimate D2E/DX2                !
 ! D144  D(58,32,33,59)          0.3269         estimate D2E/DX2                !
 ! D145  D(26,34,35,36)          0.251          estimate D2E/DX2                !
 ! D146  D(26,34,35,61)       -179.5913         estimate D2E/DX2                !
 ! D147  D(60,34,35,36)        179.5759         estimate D2E/DX2                !
 ! D148  D(60,34,35,61)         -0.2664         estimate D2E/DX2                !
 ! D149  D(34,35,36,37)          0.2726         estimate D2E/DX2                !
 ! D150  D(34,35,36,62)       -179.8703         estimate D2E/DX2                !
 ! D151  D(61,35,36,37)       -179.886          estimate D2E/DX2                !
 ! D152  D(61,35,36,62)         -0.0289         estimate D2E/DX2                !
 ! D153  D(35,36,37,38)         -0.1173         estimate D2E/DX2                !
 ! D154  D(35,36,37,63)        179.5673         estimate D2E/DX2                !
 ! D155  D(62,36,37,38)       -179.9742         estimate D2E/DX2                !
 ! D156  D(62,36,37,63)         -0.2897         estimate D2E/DX2                !
 ! D157  D(36,37,38,26)         -0.5578         estimate D2E/DX2                !
 ! D158  D(36,37,38,64)        179.5395         estimate D2E/DX2                !
 ! D159  D(63,37,38,26)        179.7538         estimate D2E/DX2                !
 ! D160  D(63,37,38,64)         -0.1489         estimate D2E/DX2                !
 ! D161  D(27,39,40,41)         -0.227          estimate D2E/DX2                !
 ! D162  D(27,39,40,66)        179.6531         estimate D2E/DX2                !
 ! D163  D(65,39,40,41)       -179.755          estimate D2E/DX2                !
 ! D164  D(65,39,40,66)          0.125          estimate D2E/DX2                !
 ! D165  D(39,40,41,42)         -0.3903         estimate D2E/DX2                !
 ! D166  D(39,40,41,67)        179.7551         estimate D2E/DX2                !
 ! D167  D(66,40,41,42)        179.7303         estimate D2E/DX2                !
 ! D168  D(66,40,41,67)         -0.1242         estimate D2E/DX2                !
 ! D169  D(40,41,42,43)          0.1761         estimate D2E/DX2                !
 ! D170  D(40,41,42,68)       -179.7826         estimate D2E/DX2                !
 ! D171  D(67,41,42,43)       -179.9693         estimate D2E/DX2                !
 ! D172  D(67,41,42,68)          0.0719         estimate D2E/DX2                !
 ! D173  D(41,42,43,27)          0.6522         estimate D2E/DX2                !
 ! D174  D(41,42,43,69)       -179.655          estimate D2E/DX2                !
 ! D175  D(68,42,43,27)       -179.3888         estimate D2E/DX2                !
 ! D176  D(68,42,43,69)          0.3039         estimate D2E/DX2                !
 --------------------------------------------------------------------------------
 Stoichiometry    C33H26N3O5PS
 Framework group  C1[X(C33H26N3O5PS)]
 Deg. of freedom   201
 Full point group                 C1      NOp   1
 Largest Abelian subgroup         C1      NOp   1
 Largest concise Abelian subgroup C1      NOp   1
                         Standard orientation:                         
 ---------------------------------------------------------------------
 Center     Atomic      Atomic             Coordinates (Angstroms)
 Number     Number       Type             X           Y           Z
 ---------------------------------------------------------------------
      1          6           0       -3.382487   -1.494151   -2.365611
      2          6           0       -4.230029   -1.242381   -3.436397
      3          6           0       -5.362812   -0.452972   -3.248827
      4          6           0       -5.648802    0.067724   -1.993895
      5          6           0       -4.789686   -0.190232   -0.933731
      6          6           0       -3.640275   -0.961339   -1.103420
      7          6           0       -2.707202   -1.268266    0.067420
      8          8           0       -4.719223    0.640107    2.669730
      9          8           0       -5.127596   -1.654794    1.706680
     10         16           0       -4.536802   -0.334857    1.625911
     11          7           0       -2.956708   -0.470897    1.277085
     12          8           0       -5.142389    0.385223    0.282857
     13          6           0        0.613811    3.543877    0.849499
     14          6           0        1.653303    4.435302    0.598527
     15          6           0        1.860502    4.919122   -0.691981
     16          6           0        1.029215    4.502009   -1.731260
     17          6           0       -0.005852    3.606454   -1.476944
     18          8           0       -1.451868    1.702172    1.266267
     19          6           0       -0.222391    3.121116   -0.185916
     20          6           0       -1.340018    2.125186    0.065660
     21          8           0       -2.037073    1.755121   -0.895169
     22          6           0       -1.314706   -1.018649   -0.324951
     23          7           0       -0.226648   -0.699282   -0.527591
     24          6           0        2.111389   -0.662130    1.702416
     25          7           0        0.904322   -0.188865   -0.856820
     26          6           0        3.556942    0.295523   -0.688251
     27          6           0        2.592351   -2.491721   -0.528761
     28         15           0        2.248284   -0.777988   -0.091720
     29          6           0        3.046541   -1.311315    2.519723
     30          6           0        2.974932   -1.161236    3.898528
     31          6           0        1.974085   -0.370087    4.462880
     32          6           0        1.047794    0.274295    3.648824
     33          6           0        1.113368    0.138591    2.264778
     34          6           0        4.891016   -0.114483   -0.579223
     35          6           0        5.908266    0.747989   -0.969050
     36          6           0        5.596545    2.014687   -1.460085
     37          6           0        4.269227    2.423553   -1.557055
     38          6           0        3.241765    1.570855   -1.167099
     39          6           0        2.082438   -3.529642    0.261044
     40          6           0        2.242074   -4.849741   -0.146361
     41          6           0        2.902818   -5.136248   -1.338236
     42          6           0        3.400021   -4.104567   -2.132633
     43          6           0        3.241311   -2.782550   -1.735869
     44          1           0       -2.496992   -2.107547   -2.512597
     45          1           0       -4.006368   -1.659195   -4.412420
     46          1           0       -6.031143   -0.247354   -4.078389
     47          1           0       -6.528973    0.675878   -1.816709
     48          1           0       -2.791440   -2.331254    0.325835
     49          1           0       -2.443771    0.479192    1.281805
     50          1           0        0.437899    3.165774    1.851090
     51          1           0        2.300757    4.755489    1.409777
     52          1           0        2.668603    5.618393   -0.888076
     53          1           0        1.188621    4.875940   -2.738735
     54          1           0       -0.661651    3.267160   -2.272037
     55          1           0        3.821799   -1.937900    2.087838
     56          1           0        3.697364   -1.664130    4.532878
     57          1           0        1.918392   -0.259085    5.541246
     58          1           0        0.264756    0.887560    4.082810
     59          1           0        0.376703    0.658684    1.655643
     60          1           0        5.140409   -1.102799   -0.203917
     61          1           0        6.942588    0.429932   -0.891699
     62          1           0        6.393162    2.685645   -1.765885
     63          1           0        4.024095    3.411399   -1.932276
     64          1           0        2.207843    1.894307   -1.236485
     65          1           0        1.569959   -3.312911    1.193128
     66          1           0        1.851546   -5.653131    0.469203
     67          1           0        3.029223   -6.167731   -1.651352
     68          1           0        3.911450   -4.329224   -3.062636
     69          1           0        3.625435   -1.982334   -2.360904
 ---------------------------------------------------------------------
 Rotational constants (GHZ):           0.1003795           0.0576998           0.0510429
 Electric field and nuclear coordinate derivatives read from checkpoint file.
 Rotating derivatives to standard orientation.
 Full mass-weighted force constant matrix:
 Low frequencies ---   -3.5125   -0.0226   -0.0011    0.0087    2.6155    6.1162
 Low frequencies ---   10.9717   23.6023   25.8384
 Diagonal vibrational polarizability:
      267.9469758     237.8705206     128.4983360
 Harmonic frequencies (cm**-1), IR intensities (KM/Mole), Raman scattering
 activities (A**4/AMU), depolarization ratios for plane and unpolarized
 incident light, reduced masses (AMU), force constants (mDyne/A),
 and normal coordinates:
                      1                      2                      3
                      A                      A                      A
 Frequencies --     10.1070                23.3146                25.6701
 Red. masses --      5.6364                 7.1901                 5.6842
 Frc consts  --      0.0003                 0.0023                 0.0022
 IR Inten    --      0.3169                 0.7261                 0.6012
  Atom  AN      X      Y      Z        X      Y      Z        X      Y      Z
     1   6     0.02   0.03  -0.05     0.01  -0.10   0.06    -0.06   0.12  -0.05
     2   6     0.03   0.04  -0.05     0.06  -0.11   0.02    -0.07   0.18  -0.03
     3   6     0.03   0.03  -0.05     0.09  -0.05  -0.06    -0.06   0.17   0.02
     4   6     0.01   0.01  -0.05     0.08   0.03  -0.09    -0.04   0.11   0.05
     5   6    -0.00  -0.01  -0.04     0.03   0.03  -0.05    -0.03   0.06   0.03
     6   6     0.00   0.00  -0.04    -0.00  -0.03   0.02    -0.04   0.06  -0.02
     7   6    -0.01  -0.01  -0.03    -0.05  -0.02   0.06    -0.03   0.01  -0.04
     8   8    -0.05  -0.06  -0.03    -0.07   0.16  -0.08     0.03  -0.08   0.06
     9   8    -0.02  -0.05  -0.07    -0.15   0.15  -0.02     0.02  -0.05  -0.01
    10  16    -0.03  -0.05  -0.04    -0.08   0.12  -0.04     0.01  -0.04   0.02
    11   7    -0.03  -0.03  -0.02    -0.07   0.02   0.04     0.00  -0.02  -0.02
    12   8    -0.02  -0.03  -0.04     0.02   0.11  -0.09    -0.02   0.00   0.06
    13   6    -0.01  -0.04   0.10     0.04  -0.06   0.04     0.04  -0.07  -0.00
    14   6     0.00  -0.05   0.13     0.03  -0.05   0.05     0.06  -0.09   0.01
    15   6     0.03  -0.02   0.14    -0.01  -0.00   0.06     0.04  -0.06   0.02
    16   6     0.04   0.01   0.12    -0.04   0.04   0.07     0.01  -0.00   0.02
    17   6     0.02   0.02   0.09    -0.03   0.02   0.06    -0.00   0.01   0.01
    18   8    -0.03  -0.03   0.03     0.03  -0.05   0.04    -0.02  -0.01  -0.01
    19   6     0.00  -0.01   0.07     0.01  -0.02   0.05     0.01  -0.02   0.00
    20   6    -0.01  -0.01   0.04     0.02  -0.03   0.05    -0.01   0.00  -0.00
    21   8     0.01   0.01   0.02     0.01  -0.02   0.05    -0.02   0.02  -0.01
    22   6    -0.01  -0.00  -0.01    -0.03  -0.04   0.09    -0.03  -0.01  -0.05
    23   7    -0.01   0.00   0.00    -0.03  -0.06   0.07    -0.02  -0.03  -0.05
    24   6     0.04   0.06   0.00     0.03  -0.04   0.01    -0.03   0.00  -0.02
    25   7    -0.01   0.01   0.01    -0.04  -0.06   0.04    -0.01  -0.06  -0.05
    26   6    -0.00  -0.02  -0.05    -0.05   0.01  -0.03    -0.02  -0.01  -0.03
    27   6    -0.03  -0.00   0.03     0.04  -0.01  -0.01     0.05  -0.02   0.02
    28  15    -0.00   0.01   0.00    -0.01  -0.02   0.00    -0.01  -0.02  -0.02
    29   6     0.10   0.14  -0.01     0.05  -0.05  -0.02    -0.02   0.03  -0.01
    30   6     0.14   0.17  -0.01     0.09  -0.06  -0.02    -0.04   0.05  -0.01
    31   6     0.11   0.13  -0.00     0.10  -0.06   0.01    -0.06   0.03  -0.03
    32   6     0.05   0.05   0.01     0.08  -0.06   0.04    -0.07  -0.00  -0.04
    33   6     0.01   0.02   0.01     0.05  -0.05   0.04    -0.05  -0.01  -0.04
    34   6    -0.01  -0.05  -0.12    -0.04   0.07  -0.00    -0.01   0.04   0.04
    35   6    -0.00  -0.07  -0.16    -0.07   0.10  -0.04    -0.03   0.05   0.03
    36   6     0.00  -0.05  -0.12    -0.12   0.06  -0.11    -0.05   0.01  -0.06
    37   6     0.01  -0.02  -0.04    -0.14  -0.00  -0.13    -0.06  -0.03  -0.12
    38   6     0.01   0.00  -0.01    -0.10  -0.02  -0.10    -0.04  -0.04  -0.11
    39   6     0.03   0.02   0.10     0.03  -0.03  -0.03     0.05  -0.02   0.03
    40   6     0.01   0.01   0.13     0.08  -0.02  -0.02     0.12  -0.02   0.08
    41   6    -0.08  -0.02   0.09     0.12  -0.01  -0.00     0.20  -0.04   0.13
    42   6    -0.14  -0.04   0.02     0.12   0.01   0.01     0.20  -0.04   0.12
    43   6    -0.12  -0.03  -0.01     0.08   0.00   0.01     0.12  -0.04   0.07
    44   1     0.03   0.03  -0.05    -0.01  -0.15   0.12    -0.06   0.12  -0.09
    45   1     0.05   0.06  -0.06     0.07  -0.17   0.05    -0.08   0.22  -0.05
    46   1     0.04   0.04  -0.06     0.13  -0.05  -0.09    -0.07   0.22   0.04
    47   1     0.00   0.00  -0.05     0.10   0.08  -0.15    -0.04   0.11   0.09
    48   1    -0.01  -0.02  -0.05    -0.07  -0.01   0.09    -0.05   0.00  -0.07
    49   1    -0.03  -0.03  -0.01    -0.02  -0.01   0.04    -0.01  -0.02  -0.01
    50   1    -0.03  -0.06   0.08     0.06  -0.09   0.04     0.05  -0.09  -0.01
    51   1    -0.01  -0.07   0.15     0.05  -0.08   0.04     0.08  -0.13   0.00
    52   1     0.04  -0.02   0.17    -0.01   0.00   0.06     0.06  -0.07   0.02
    53   1     0.05   0.03   0.13    -0.07   0.07   0.08     0.00   0.02   0.03
    54   1     0.03   0.04   0.07    -0.05   0.05   0.07    -0.03   0.05   0.01
    55   1     0.13   0.18  -0.02     0.04  -0.04  -0.05    -0.01   0.04   0.01
    56   1     0.19   0.23  -0.02     0.10  -0.06  -0.04    -0.03   0.07   0.00
    57   1     0.14   0.16  -0.00     0.13  -0.07   0.01    -0.07   0.04  -0.03
    58   1     0.03   0.02   0.02     0.09  -0.07   0.07    -0.08  -0.01  -0.06
    59   1    -0.03  -0.04   0.02     0.03  -0.05   0.06    -0.06  -0.03  -0.05
    60   1    -0.01  -0.06  -0.16     0.00   0.10   0.05     0.00   0.07   0.10
    61   1    -0.01  -0.09  -0.22    -0.06   0.14  -0.01    -0.02   0.08   0.08
    62   1     0.00  -0.06  -0.15    -0.15   0.07  -0.14    -0.06   0.02  -0.07
    63   1     0.01  -0.00  -0.01    -0.17  -0.03  -0.18    -0.07  -0.06  -0.18
    64   1     0.01   0.03   0.05    -0.12  -0.07  -0.11    -0.05  -0.07  -0.15
    65   1     0.10   0.04   0.13     0.00  -0.04  -0.04    -0.01  -0.01  -0.00
    66   1     0.06   0.02   0.18     0.08  -0.03  -0.04     0.12  -0.02   0.09
    67   1    -0.10  -0.03   0.11     0.16  -0.00   0.00     0.25  -0.04   0.17
    68   1    -0.21  -0.06  -0.01     0.16   0.02   0.03     0.25  -0.05   0.15
    69   1    -0.17  -0.05  -0.06     0.08   0.01   0.02     0.13  -0.04   0.06
                      4                      5                      6
                      A                      A                      A
 Frequencies --     34.5177                37.8597                42.5383
 Red. masses --      5.1063                 6.0796                 4.6603
 Frc consts  --      0.0036                 0.0051                 0.0050
 IR Inten    --      0.1983                 0.9216                 0.0166
  Atom  AN      X      Y      Z        X      Y      Z        X      Y      Z
     1   6    -0.05  -0.02   0.00     0.00   0.07  -0.04    -0.07  -0.02  -0.01
     2   6    -0.05   0.01   0.01     0.04   0.16  -0.05    -0.09  -0.04   0.00
     3   6    -0.01   0.06   0.01     0.07   0.20  -0.03    -0.09  -0.04   0.01
     4   6     0.02   0.08   0.01     0.07   0.16  -0.01    -0.06  -0.02   0.01
     5   6     0.02   0.05   0.00     0.03   0.06  -0.01    -0.04   0.01  -0.01
     6   6    -0.01   0.00  -0.00     0.00   0.02  -0.02    -0.04   0.00  -0.01
     7   6    -0.01  -0.02  -0.01    -0.02  -0.05  -0.02    -0.03   0.01  -0.02
     8   8     0.07   0.05   0.00     0.01  -0.07   0.02     0.00   0.03  -0.01
     9   8    -0.03   0.07   0.00    -0.04  -0.03  -0.07    -0.03   0.03   0.00
    10  16     0.03   0.04   0.00    -0.00  -0.04  -0.01    -0.01   0.02  -0.01
    11   7     0.02  -0.02  -0.00    -0.00  -0.07  -0.00    -0.02   0.01  -0.02
    12   8     0.05   0.07   0.00     0.03   0.03   0.01    -0.02   0.02  -0.01
    13   6    -0.09   0.08   0.01    -0.02   0.01  -0.08     0.07  -0.09  -0.04
    14   6    -0.13   0.13   0.03    -0.06   0.04  -0.13     0.09  -0.12  -0.06
    15   6    -0.10   0.11   0.02    -0.10   0.01  -0.15     0.06  -0.09  -0.05
    16   6    -0.05   0.05   0.00    -0.11  -0.04  -0.12     0.01  -0.04  -0.03
    17   6    -0.02   0.01  -0.01    -0.08  -0.07  -0.07    -0.01  -0.01  -0.02
    18   8     0.01  -0.02  -0.03     0.05  -0.08  -0.01     0.00  -0.01  -0.01
    19   6    -0.03   0.03  -0.01    -0.03  -0.04  -0.05     0.02  -0.04  -0.02
    20   6     0.00  -0.02  -0.03     0.00  -0.07  -0.01    -0.00  -0.01  -0.01
    21   8     0.02  -0.04  -0.03    -0.03  -0.07   0.01    -0.03   0.01   0.00
    22   6    -0.01  -0.05  -0.02    -0.01  -0.06  -0.00    -0.03   0.01  -0.03
    23   7    -0.00  -0.06  -0.02    -0.01  -0.04   0.04    -0.02   0.01  -0.00
    24   6    -0.01  -0.04  -0.02     0.05  -0.01   0.05    -0.01   0.00   0.02
    25   7     0.00  -0.08  -0.03    -0.02  -0.00   0.08    -0.02   0.02   0.02
    26   6    -0.01  -0.04  -0.00    -0.02   0.01   0.04    -0.01   0.00   0.04
    27   6     0.03  -0.06  -0.00    -0.02  -0.00   0.03    -0.00   0.03  -0.01
    28  15     0.00  -0.06  -0.01    -0.00  -0.00   0.05    -0.02   0.01   0.02
    29   6    -0.01  -0.01   0.00     0.08  -0.01   0.01     0.06   0.08   0.00
    30   6    -0.02   0.02   0.00     0.15  -0.00   0.02     0.09   0.09   0.01
    31   6    -0.02   0.03  -0.02     0.17   0.01   0.05     0.05   0.02   0.02
    32   6    -0.02   0.01  -0.04     0.14   0.00   0.09    -0.02  -0.05   0.04
    33   6    -0.01  -0.02  -0.04     0.07  -0.01   0.09    -0.05  -0.06   0.04
    34   6    -0.01  -0.07  -0.12    -0.01   0.03   0.07    -0.02  -0.01   0.09
    35   6    -0.02  -0.05  -0.08    -0.02   0.04   0.07     0.01  -0.03   0.13
    36   6    -0.02   0.01   0.07    -0.03   0.03   0.05     0.04  -0.03   0.10
    37   6    -0.02   0.04   0.18    -0.04   0.01   0.02     0.05  -0.02   0.04
    38   6    -0.01   0.01   0.15    -0.03  -0.01   0.01     0.02  -0.00   0.01
    39   6     0.14  -0.07   0.05    -0.04  -0.00   0.01     0.15  -0.01   0.03
    40   6     0.19  -0.07   0.06    -0.07   0.00  -0.01     0.20   0.00   0.00
    41   6     0.12  -0.06   0.02    -0.08   0.01  -0.01     0.09   0.06  -0.07
    42   6     0.00  -0.04  -0.04    -0.05   0.01   0.01    -0.07   0.10  -0.12
    43   6    -0.04  -0.05  -0.05    -0.02   0.00   0.03    -0.11   0.08  -0.08
    44   1    -0.07  -0.06  -0.00    -0.02   0.03  -0.05    -0.07  -0.02  -0.02
    45   1    -0.07  -0.01   0.01     0.04   0.19  -0.06    -0.11  -0.06   0.01
    46   1    -0.01   0.08   0.02     0.10   0.28  -0.04    -0.11  -0.06   0.02
    47   1     0.05   0.12   0.01     0.09   0.19  -0.00    -0.06  -0.01   0.02
    48   1    -0.03  -0.02  -0.01    -0.05  -0.05  -0.05    -0.02   0.01  -0.02
    49   1     0.04  -0.03  -0.01     0.01  -0.08   0.01    -0.01   0.00  -0.02
    50   1    -0.10   0.09   0.01     0.02   0.03  -0.07     0.10  -0.11  -0.04
    51   1    -0.17   0.18   0.04    -0.05   0.08  -0.16     0.13  -0.16  -0.07
    52   1    -0.13   0.15   0.04    -0.13   0.03  -0.19     0.07  -0.11  -0.06
    53   1    -0.03   0.04   0.00    -0.15  -0.07  -0.13    -0.02  -0.01  -0.03
    54   1     0.03  -0.04  -0.03    -0.09  -0.11  -0.04    -0.05   0.03  -0.00
    55   1    -0.01  -0.02   0.02     0.06  -0.02  -0.02     0.10   0.14  -0.01
    56   1    -0.02   0.04   0.01     0.17   0.00  -0.01     0.14   0.15  -0.01
    57   1    -0.02   0.06  -0.03     0.22   0.02   0.06     0.07   0.03   0.02
    58   1    -0.02   0.03  -0.06     0.16   0.01   0.12    -0.05  -0.10   0.06
    59   1    -0.00  -0.03  -0.05     0.05  -0.02   0.11    -0.09  -0.10   0.06
    60   1    -0.00  -0.12  -0.23    -0.00   0.04   0.08    -0.05  -0.01   0.11
    61   1    -0.02  -0.07  -0.18    -0.02   0.06   0.10     0.00  -0.04   0.17
    62   1    -0.03   0.03   0.10    -0.04   0.04   0.06     0.06  -0.04   0.12
    63   1    -0.03   0.08   0.30    -0.05  -0.00   0.01     0.07  -0.02   0.01
    64   1    -0.01   0.03   0.23    -0.04  -0.02  -0.01     0.03   0.00  -0.04
    65   1     0.19  -0.08   0.07    -0.04  -0.00   0.02     0.23  -0.05   0.09
    66   1     0.27  -0.08   0.10    -0.09   0.00  -0.02     0.32  -0.03   0.03
    67   1     0.15  -0.06   0.03    -0.11   0.01  -0.03     0.12   0.07  -0.10
    68   1    -0.05  -0.03  -0.07    -0.06   0.01   0.00    -0.16   0.14  -0.18
    69   1    -0.13  -0.04  -0.09    -0.00   0.00   0.04    -0.22   0.12  -0.11
                      7                      8                      9
                      A                      A                      A
 Frequencies --     44.1852                46.4163                54.9509
 Red. masses --      5.2296                 6.9142                 5.4028
 Frc consts  --      0.0060                 0.0088                 0.0096
 IR Inten    --      0.1419                 1.1900                 0.7466
  Atom  AN      X      Y      Z        X      Y      Z        X      Y      Z
     1   6    -0.10  -0.06  -0.02    -0.08  -0.11  -0.02     0.04  -0.04   0.05
     2   6    -0.14  -0.09   0.00    -0.11  -0.07   0.00     0.08   0.01   0.03
     3   6    -0.13  -0.07   0.02    -0.04   0.02   0.03     0.12   0.08   0.00
     4   6    -0.07  -0.03   0.02     0.04   0.07   0.03     0.11   0.08   0.00
     5   6    -0.03  -0.00  -0.01     0.06   0.03  -0.00     0.06   0.02   0.03
     6   6    -0.04  -0.02  -0.03     0.00  -0.06  -0.03     0.03  -0.04   0.05
     7   6    -0.01  -0.02  -0.05     0.03  -0.10  -0.06     0.00  -0.06   0.06
     8   8     0.07   0.02  -0.02     0.20   0.02  -0.00     0.01  -0.00   0.03
     9   8    -0.01   0.03  -0.00     0.02   0.05  -0.01    -0.03   0.01   0.02
    10  16     0.03   0.02  -0.02     0.11   0.01  -0.01     0.01  -0.01   0.03
    11   7     0.02  -0.02  -0.04     0.10  -0.09  -0.04     0.01  -0.04   0.06
    12   8     0.03   0.03  -0.01     0.14   0.07   0.00     0.05   0.02   0.02
    13   6    -0.01  -0.02   0.04     0.01  -0.05   0.00    -0.05  -0.02   0.04
    14   6    -0.01  -0.01   0.07     0.00  -0.03   0.05    -0.03  -0.04   0.06
    15   6     0.00   0.02   0.08     0.01   0.03   0.07     0.04  -0.08   0.06
    16   6     0.02   0.04   0.06     0.02   0.06   0.04     0.09  -0.10   0.03
    17   6     0.02   0.03   0.03     0.03   0.03  -0.00     0.07  -0.09   0.00
    18   8     0.01  -0.04  -0.02     0.03  -0.07  -0.07    -0.06  -0.01  -0.01
    19   6     0.01  -0.00   0.02     0.03  -0.02  -0.02     0.00  -0.05   0.01
    20   6     0.01  -0.02  -0.02     0.05  -0.06  -0.07    -0.02  -0.04  -0.02
    21   8     0.02  -0.00  -0.02     0.08  -0.07  -0.09     0.02  -0.06  -0.04
    22   6    -0.02  -0.02  -0.08     0.02  -0.12  -0.09     0.00  -0.07   0.06
    23   7    -0.02  -0.02  -0.06     0.01  -0.04  -0.02    -0.01  -0.05   0.01
    24   6     0.01  -0.00  -0.04    -0.02   0.03   0.05    -0.05   0.02  -0.02
    25   7    -0.01  -0.01  -0.05    -0.01   0.03   0.04    -0.02  -0.05  -0.03
    26   6    -0.01  -0.01  -0.01    -0.02   0.05   0.02    -0.02  -0.01  -0.00
    27   6    -0.02  -0.02  -0.02    -0.02   0.05   0.05     0.01  -0.01  -0.03
    28  15    -0.02  -0.02  -0.05    -0.00   0.05   0.05    -0.02  -0.02  -0.02
    29   6     0.04   0.02  -0.07    -0.00   0.05   0.05    -0.08   0.03   0.02
    30   6     0.12   0.08  -0.07    -0.06  -0.01   0.06    -0.08   0.12   0.01
    31   6     0.15   0.11  -0.05    -0.12  -0.09   0.06    -0.05   0.21  -0.04
    32   6     0.11   0.08  -0.03    -0.13  -0.11   0.05    -0.02   0.19  -0.09
    33   6     0.04   0.02  -0.03    -0.08  -0.05   0.05    -0.02   0.09  -0.07
    34   6    -0.01   0.02   0.07    -0.01   0.07   0.01    -0.02   0.02   0.07
    35   6     0.00   0.05   0.16    -0.03   0.06  -0.05    -0.02   0.03   0.10
    36   6     0.01   0.05   0.17    -0.05   0.03  -0.12    -0.02   0.00   0.04
    37   6     0.01   0.03   0.09    -0.06   0.01  -0.11    -0.02  -0.03  -0.04
    38   6    -0.00  -0.00  -0.00    -0.04   0.02  -0.04    -0.02  -0.03  -0.06
    39   6    -0.12   0.00  -0.05    -0.03   0.05   0.05     0.02  -0.03  -0.06
    40   6    -0.13  -0.01  -0.02    -0.08   0.05   0.03     0.00  -0.02  -0.11
    41   6    -0.04  -0.04   0.04    -0.12   0.05   0.01    -0.03   0.02  -0.14
    42   6     0.07  -0.07   0.07    -0.11   0.04   0.01    -0.04   0.05  -0.11
    43   6     0.08  -0.06   0.04    -0.06   0.04   0.03    -0.02   0.03  -0.06
    44   1    -0.12  -0.08  -0.04    -0.13  -0.17  -0.04     0.01  -0.09   0.08
    45   1    -0.19  -0.12   0.01    -0.18  -0.11   0.00     0.09   0.01   0.03
    46   1    -0.16  -0.09   0.05    -0.06   0.05   0.05     0.16   0.13  -0.02
    47   1    -0.06  -0.01   0.04     0.09   0.13   0.04     0.14   0.12  -0.02
    48   1    -0.01  -0.02  -0.06    -0.00  -0.10  -0.06    -0.02  -0.06   0.07
    49   1     0.04  -0.03  -0.04     0.12  -0.10  -0.07     0.00  -0.04   0.02
    50   1    -0.02  -0.04   0.03     0.01  -0.09  -0.02    -0.11   0.01   0.04
    51   1    -0.02  -0.02   0.09    -0.01  -0.05   0.06    -0.07  -0.02   0.09
    52   1     0.00   0.03   0.11    -0.00   0.05   0.10     0.06  -0.09   0.08
    53   1     0.03   0.06   0.07     0.02   0.10   0.06     0.15  -0.14   0.03
    54   1     0.04   0.04   0.01     0.05   0.05  -0.02     0.11  -0.11  -0.02
    55   1     0.02  -0.01  -0.08     0.04   0.11   0.05    -0.10  -0.03   0.07
    56   1     0.14   0.10  -0.08    -0.05   0.01   0.06    -0.11   0.13   0.05
    57   1     0.21   0.16  -0.05    -0.17  -0.14   0.06    -0.04   0.28  -0.05
    58   1     0.14   0.10  -0.01    -0.18  -0.17   0.05    -0.00   0.25  -0.13
    59   1     0.02   0.00  -0.02    -0.09  -0.06   0.05    -0.00   0.08  -0.11
    60   1    -0.01   0.02   0.07     0.01   0.09   0.06    -0.02   0.03   0.12
    61   1     0.00   0.07   0.23    -0.03   0.08  -0.06    -0.02   0.05   0.16
    62   1     0.02   0.08   0.25    -0.07   0.02  -0.17    -0.02   0.01   0.06
    63   1     0.01   0.03   0.10    -0.08  -0.01  -0.16    -0.02  -0.04  -0.09
    64   1    -0.00  -0.02  -0.05    -0.05   0.01  -0.04    -0.03  -0.05  -0.11
    65   1    -0.19   0.03  -0.09     0.00   0.06   0.07     0.04  -0.06  -0.04
    66   1    -0.21   0.01  -0.05    -0.08   0.06   0.04     0.01  -0.04  -0.13
    67   1    -0.05  -0.05   0.06    -0.16   0.05  -0.00    -0.05   0.03  -0.18
    68   1     0.14  -0.10   0.12    -0.14   0.04  -0.00    -0.07   0.08  -0.13
    69   1     0.16  -0.08   0.06    -0.05   0.04   0.03    -0.03   0.05  -0.03
                     10                     11                     12
                      A                      A                      A
 Frequencies --     59.6345                62.2013                69.7415
 Red. masses --      4.8090                 6.3937                 4.8215
 Frc consts  --      0.0101                 0.0146                 0.0138
 IR Inten    --      0.4608                 1.9650                 1.0555
  Atom  AN      X      Y      Z        X      Y      Z        X      Y      Z
     1   6    -0.05   0.04  -0.05     0.08   0.09  -0.02    -0.03  -0.02  -0.03
     2   6    -0.09   0.02  -0.03     0.10   0.09  -0.03    -0.06  -0.04  -0.01
     3   6    -0.12  -0.03   0.00     0.04   0.00  -0.02    -0.06  -0.04  -0.00
     4   6    -0.10  -0.04   0.01    -0.03  -0.08  -0.00    -0.02  -0.01  -0.00
     5   6    -0.06  -0.01  -0.01    -0.05  -0.08   0.01     0.01   0.01  -0.02
     6   6    -0.04   0.02  -0.04     0.01   0.00   0.01     0.00   0.01  -0.04
     7   6    -0.03   0.02  -0.05    -0.02   0.00   0.03     0.02   0.00  -0.05
     8   8    -0.01  -0.01  -0.01    -0.02   0.05  -0.02     0.03  -0.04  -0.01
     9   8     0.01  -0.02   0.00     0.08  -0.04   0.15     0.01  -0.01  -0.08
    10  16    -0.01  -0.01  -0.01    -0.00  -0.01   0.04     0.02  -0.01  -0.04
    11   7    -0.02   0.02  -0.05    -0.01   0.06  -0.02     0.02  -0.02  -0.03
    12   8    -0.06  -0.02  -0.00    -0.11  -0.13   0.02     0.04   0.03  -0.02
    13   6    -0.08   0.11   0.03     0.09  -0.05  -0.06     0.09  -0.05  -0.01
    14   6    -0.08   0.12   0.07     0.08  -0.02   0.00     0.09  -0.05  -0.05
    15   6     0.03   0.02   0.05     0.04   0.11   0.04    -0.03   0.03  -0.04
    16   6     0.15  -0.08   0.00     0.01   0.21   0.03    -0.14   0.12   0.02
    17   6     0.14  -0.09  -0.03     0.03   0.17  -0.03    -0.13   0.12   0.06
    18   8     0.01  -0.01  -0.05     0.05   0.00  -0.13     0.05  -0.01   0.06
    19   6     0.03   0.01  -0.02     0.06   0.04  -0.08    -0.01   0.03   0.04
    20   6     0.04  -0.01  -0.04     0.07   0.02  -0.13     0.00   0.02   0.07
    21   8     0.06  -0.02  -0.06     0.10   0.02  -0.15    -0.04   0.04   0.09
    22   6    -0.02   0.00  -0.03    -0.01  -0.06   0.03     0.02   0.01  -0.04
    23   7    -0.01  -0.00   0.03    -0.01  -0.06   0.03     0.03  -0.01  -0.00
    24   6     0.01  -0.02   0.06    -0.00  -0.04   0.02    -0.00  -0.02   0.05
    25   7    -0.00   0.01   0.08    -0.01  -0.07   0.02     0.04  -0.03   0.03
    26   6    -0.01  -0.00   0.04    -0.04  -0.02   0.01     0.02  -0.03   0.04
    27   6     0.01   0.01   0.02     0.00  -0.05   0.01     0.03  -0.03   0.03
    28  15    -0.00  -0.00   0.06    -0.01  -0.05   0.02     0.03  -0.04   0.05
    29   6    -0.03  -0.09   0.06     0.01  -0.02   0.02    -0.08  -0.08   0.10
    30   6     0.00  -0.07   0.06     0.02   0.02   0.02    -0.10   0.00   0.09
    31   6     0.08   0.02   0.06     0.03   0.03   0.01    -0.02   0.14   0.03
    32   6     0.11   0.08   0.07     0.01   0.00   0.01     0.05   0.18  -0.02
    33   6     0.08   0.06   0.07    -0.00  -0.03   0.01     0.06   0.09  -0.01
    34   6    -0.01   0.00   0.03    -0.03   0.04   0.03     0.02  -0.02   0.01
    35   6    -0.02  -0.02  -0.05    -0.06   0.08   0.05     0.01  -0.02  -0.05
    36   6    -0.03  -0.05  -0.11    -0.10   0.07   0.05    -0.01  -0.04  -0.07
    37   6    -0.03  -0.05  -0.09    -0.12   0.02   0.03    -0.02  -0.04  -0.03
    38   6    -0.02  -0.02  -0.01    -0.09  -0.03   0.01    -0.00  -0.04   0.02
    39   6     0.03  -0.02  -0.01     0.03  -0.06   0.02     0.03  -0.05  -0.01
    40   6     0.06  -0.01  -0.05    -0.00  -0.05  -0.01    -0.00  -0.04  -0.06
    41   6     0.06   0.04  -0.06    -0.06  -0.04  -0.04    -0.02  -0.01  -0.08
    42   6     0.04   0.07  -0.03    -0.08  -0.03  -0.05    -0.01   0.02  -0.04
    43   6     0.02   0.06   0.01    -0.05  -0.04  -0.02     0.02   0.00   0.01
    44   1    -0.04   0.07  -0.07     0.13   0.16  -0.02    -0.04  -0.03  -0.04
    45   1    -0.10   0.03  -0.03     0.17   0.17  -0.05    -0.09  -0.07  -0.01
    46   1    -0.15  -0.05   0.02     0.05   0.00  -0.03    -0.08  -0.06   0.01
    47   1    -0.12  -0.08   0.04    -0.07  -0.15   0.00    -0.02  -0.01   0.01
    48   1    -0.04   0.02  -0.05    -0.06   0.02   0.07     0.02  -0.00  -0.06
    49   1    -0.02   0.01  -0.05    -0.02   0.07  -0.08     0.03  -0.03   0.01
    50   1    -0.17   0.18   0.04     0.12  -0.14  -0.09     0.18  -0.10  -0.01
    51   1    -0.18   0.21   0.11     0.10  -0.10   0.01     0.18  -0.13  -0.09
    52   1     0.04   0.03   0.07     0.03   0.14   0.09    -0.03   0.03  -0.07
    53   1     0.24  -0.16  -0.01    -0.02   0.31   0.06    -0.24   0.19   0.03
    54   1     0.23  -0.16  -0.07     0.01   0.24  -0.05    -0.21   0.19   0.10
    55   1    -0.08  -0.15   0.05     0.01  -0.02   0.03    -0.14  -0.17   0.15
    56   1    -0.03  -0.13   0.05     0.03   0.04   0.03    -0.16  -0.04   0.13
    57   1     0.10   0.03   0.06     0.04   0.06   0.01    -0.03   0.21   0.03
    58   1     0.17   0.14   0.08     0.02   0.01   0.00     0.10   0.28  -0.07
    59   1     0.10   0.09   0.07    -0.01  -0.05   0.00     0.10   0.11  -0.04
    60   1     0.00   0.02   0.07     0.01   0.04   0.03     0.04  -0.01   0.02
    61   1    -0.02  -0.02  -0.06    -0.05   0.12   0.06     0.01  -0.02  -0.08
    62   1    -0.04  -0.07  -0.18    -0.12   0.10   0.07    -0.03  -0.04  -0.12
    63   1    -0.04  -0.07  -0.13    -0.15   0.01   0.03    -0.04  -0.05  -0.04
    64   1    -0.02  -0.03   0.01    -0.10  -0.07  -0.00    -0.01  -0.04   0.05
    65   1     0.02  -0.06  -0.01     0.07  -0.06   0.05     0.04  -0.08   0.01
    66   1     0.07  -0.03  -0.07     0.02  -0.06  -0.00    -0.01  -0.06  -0.08
    67   1     0.09   0.05  -0.08    -0.09  -0.03  -0.07    -0.05   0.00  -0.12
    68   1     0.05   0.11  -0.03    -0.13  -0.02  -0.07    -0.03   0.04  -0.06
    69   1     0.00   0.08   0.04    -0.07  -0.03  -0.02     0.02   0.02   0.03
                     13                     14                     15
                      A                      A                      A
 Frequencies --     81.2146                82.3358                85.9697
 Red. masses --      5.3687                 4.7285                 7.9322
 Frc consts  --      0.0209                 0.0189                 0.0345
 IR Inten    --      3.1617                 0.9138                 5.6561
  Atom  AN      X      Y      Z        X      Y      Z        X      Y      Z
     1   6    -0.00   0.04  -0.03    -0.03  -0.01   0.02     0.06   0.10  -0.10
     2   6    -0.04  -0.00  -0.02    -0.03  -0.01   0.02     0.07   0.13  -0.10
     3   6    -0.06  -0.04  -0.00    -0.01   0.01   0.01     0.01   0.03  -0.06
     4   6    -0.05  -0.04  -0.00    -0.01   0.02   0.01    -0.05  -0.08  -0.03
     5   6    -0.02   0.01  -0.02    -0.01   0.02   0.01    -0.04  -0.08  -0.03
     6   6     0.00   0.04  -0.03    -0.02   0.00   0.01    -0.00  -0.01  -0.07
     7   6     0.01   0.04  -0.03    -0.02  -0.00   0.01    -0.00  -0.03  -0.07
     8   8    -0.01  -0.01  -0.01    -0.04  -0.03   0.02     0.19   0.23  -0.12
     9   8     0.02  -0.00  -0.05    -0.03  -0.01  -0.03     0.04   0.10   0.27
    10  16    -0.00   0.00  -0.03    -0.03  -0.01   0.00     0.07   0.07   0.01
    11   7     0.00   0.02  -0.02    -0.02  -0.01   0.02     0.03   0.00  -0.09
    12   8    -0.01   0.01  -0.02    -0.00   0.02   0.01    -0.08  -0.12  -0.03
    13   6     0.06   0.05   0.03     0.08  -0.12  -0.05    -0.04  -0.02   0.04
    14   6     0.05   0.04  -0.03     0.10  -0.14  -0.04    -0.04  -0.03   0.00
    15   6     0.06  -0.05  -0.07     0.09  -0.11  -0.02    -0.05  -0.08  -0.02
    16   6     0.07  -0.14  -0.04     0.07  -0.06  -0.03    -0.06  -0.11   0.00
    17   6     0.08  -0.13   0.02     0.05  -0.04  -0.04    -0.06  -0.10   0.04
    18   8     0.05   0.04   0.12    -0.00  -0.02  -0.05    -0.02  -0.03   0.10
    19   6     0.07  -0.03   0.06     0.05  -0.07  -0.05    -0.05  -0.05   0.06
    20   6     0.05   0.01   0.11     0.02  -0.03  -0.05    -0.05  -0.03   0.10
    21   8     0.03  -0.01   0.12     0.02  -0.02  -0.06    -0.08  -0.03   0.12
    22   6     0.01   0.02  -0.02    -0.01  -0.00   0.02     0.00  -0.06  -0.07
    23   7     0.03  -0.03  -0.02    -0.01  -0.00   0.03     0.01  -0.04  -0.03
    24   6     0.03  -0.00  -0.01    -0.01   0.01   0.02    -0.02  -0.01   0.02
    25   7     0.04  -0.06  -0.03    -0.02   0.01   0.03     0.01  -0.02   0.01
    26   6     0.00   0.02  -0.03    -0.01   0.03   0.02     0.01  -0.00   0.03
    27   6     0.04  -0.04   0.02     0.01   0.02   0.00     0.02  -0.00   0.01
    28  15     0.04  -0.03  -0.01    -0.00   0.02   0.02     0.01  -0.01   0.03
    29   6     0.01  -0.01   0.01    -0.02   0.00   0.03     0.03   0.07   0.03
    30   6    -0.04  -0.01   0.01    -0.01   0.02   0.02     0.03   0.11   0.03
    31   6    -0.06  -0.02  -0.02     0.00   0.04   0.02    -0.01   0.06   0.02
    32   6    -0.03  -0.01  -0.04     0.00   0.04   0.02    -0.06  -0.02   0.01
    33   6     0.02  -0.00  -0.04    -0.00   0.02   0.02    -0.06  -0.05   0.01
    34   6     0.03   0.11  -0.02    -0.01  -0.01  -0.16     0.01  -0.02  -0.03
    35   6    -0.03   0.19   0.02    -0.03   0.01  -0.18    -0.00  -0.04  -0.07
    36   6    -0.10   0.18   0.05    -0.05   0.07  -0.00    -0.00  -0.03  -0.05
    37   6    -0.13   0.09   0.03    -0.05   0.11   0.19    -0.00  -0.01   0.03
    38   6    -0.08   0.01  -0.01    -0.03   0.09   0.19     0.00   0.00   0.06
    39   6     0.07  -0.02   0.07    -0.06   0.02  -0.05    -0.04  -0.01  -0.05
    40   6     0.00  -0.03   0.06    -0.06   0.03  -0.06    -0.06  -0.00  -0.09
    41   6    -0.11  -0.05   0.01     0.02   0.03  -0.02    -0.00   0.02  -0.06
    42   6    -0.13  -0.07  -0.03     0.09   0.03   0.03     0.08   0.03   0.00
    43   6    -0.05  -0.07  -0.02     0.08   0.03   0.04     0.08   0.02   0.03
    44   1     0.01   0.06  -0.05    -0.03  -0.02   0.02     0.10   0.17  -0.13
    45   1    -0.04  -0.00  -0.02    -0.03  -0.02   0.02     0.12   0.22  -0.13
    46   1    -0.09  -0.08   0.01    -0.01   0.01   0.01     0.01   0.05  -0.06
    47   1    -0.07  -0.07   0.01     0.00   0.03   0.01    -0.08  -0.13  -0.01
    48   1     0.00   0.04  -0.04    -0.02  -0.00   0.01    -0.03  -0.02  -0.05
    49   1     0.01   0.01   0.03    -0.03  -0.01   0.00     0.07  -0.01  -0.04
    50   1     0.05   0.12   0.06     0.08  -0.13  -0.05    -0.03   0.01   0.06
    51   1     0.04   0.11  -0.05     0.12  -0.19  -0.04    -0.03  -0.01  -0.02
    52   1     0.05  -0.06  -0.11     0.11  -0.12  -0.01    -0.05  -0.09  -0.05
    53   1     0.09  -0.23  -0.07     0.07  -0.04  -0.02    -0.06  -0.15  -0.01
    54   1     0.08  -0.19   0.04     0.04  -0.01  -0.04    -0.07  -0.13   0.06
    55   1     0.02  -0.01   0.04    -0.03  -0.01   0.03     0.06   0.10   0.04
    56   1    -0.06  -0.02   0.03    -0.02   0.02   0.03     0.07   0.17   0.04
    57   1    -0.10  -0.03  -0.02     0.01   0.06   0.02    -0.00   0.09   0.01
    58   1    -0.04  -0.01  -0.07     0.01   0.05   0.01    -0.09  -0.06  -0.00
    59   1     0.04   0.01  -0.06    -0.00   0.01   0.01    -0.08  -0.09   0.01
    60   1     0.09   0.11  -0.04     0.01  -0.05  -0.29     0.01  -0.03  -0.05
    61   1    -0.01   0.26   0.04    -0.03  -0.03  -0.33    -0.00  -0.05  -0.12
    62   1    -0.14   0.25   0.09    -0.06   0.08  -0.02    -0.01  -0.04  -0.08
    63   1    -0.19   0.08   0.04    -0.06   0.16   0.32    -0.01   0.00   0.05
    64   1    -0.09  -0.06  -0.01    -0.03   0.12   0.31     0.00   0.02   0.10
    65   1     0.14  -0.00   0.10    -0.11   0.02  -0.07    -0.08  -0.02  -0.07
    66   1     0.03  -0.01   0.10    -0.11   0.02  -0.10    -0.12  -0.01  -0.14
    67   1    -0.17  -0.06   0.00     0.02   0.03  -0.02    -0.02   0.02  -0.09
    68   1    -0.21  -0.10  -0.07     0.15   0.04   0.06     0.12   0.05   0.03
    69   1    -0.07  -0.08  -0.06     0.12   0.03   0.07     0.13   0.03   0.08
                     16                     17                     18
                      A                      A                      A
 Frequencies --     90.2155                99.2297               111.7805
 Red. masses --      4.9545                 7.2723                 7.4775
 Frc consts  --      0.0238                 0.0422                 0.0550
 IR Inten    --      0.5770                12.3617                 7.2380
  Atom  AN      X      Y      Z        X      Y      Z        X      Y      Z
     1   6    -0.01   0.02   0.03    -0.01  -0.05   0.00     0.00  -0.10   0.02
     2   6    -0.04  -0.02   0.03     0.02  -0.02  -0.01     0.02  -0.08   0.01
     3   6    -0.05  -0.03   0.03     0.03   0.00  -0.02     0.08   0.00  -0.02
     4   6    -0.03   0.00   0.02     0.02   0.00  -0.02     0.09   0.04  -0.03
     5   6    -0.01   0.04   0.01    -0.00  -0.03  -0.01     0.06   0.00  -0.01
     6   6     0.00   0.05   0.02    -0.01  -0.05  -0.00     0.02  -0.05   0.00
     7   6     0.00   0.06   0.02    -0.03  -0.06   0.01     0.03  -0.02  -0.00
     8   8    -0.09  -0.05   0.04    -0.03  -0.05  -0.00     0.05  -0.05   0.00
     9   8    -0.02  -0.01  -0.09     0.03  -0.05  -0.02     0.14  -0.05  -0.05
    10  16    -0.04   0.00  -0.01    -0.01  -0.04  -0.01     0.08  -0.02  -0.02
    11   7    -0.02   0.04   0.03    -0.00  -0.02  -0.01     0.08   0.03  -0.03
    12   8     0.00   0.06   0.01    -0.01  -0.04  -0.01     0.06  -0.01  -0.01
    13   6    -0.02   0.05  -0.01     0.17   0.11   0.01    -0.05   0.12   0.00
    14   6    -0.04   0.07   0.00     0.10   0.17  -0.06     0.03   0.02  -0.01
    15   6    -0.04   0.06  -0.00     0.01   0.14  -0.09     0.12  -0.07  -0.03
    16   6    -0.01   0.03  -0.01     0.00   0.04  -0.04     0.11  -0.05  -0.03
    17   6     0.01   0.01  -0.02     0.08  -0.02   0.04     0.01   0.07  -0.02
    18   8    -0.02   0.04  -0.00     0.14   0.04   0.13    -0.09   0.16   0.00
    19   6     0.00   0.02  -0.01     0.15   0.02   0.07    -0.06   0.14   0.00
    20   6     0.01   0.01  -0.01     0.18  -0.02   0.12    -0.11   0.19   0.01
    21   8     0.04  -0.03  -0.02     0.21  -0.09   0.12    -0.16   0.25   0.03
    22   6     0.01   0.05   0.04    -0.04  -0.10  -0.02     0.01  -0.03  -0.06
    23   7     0.03  -0.03   0.03    -0.07  -0.02  -0.03    -0.02   0.04  -0.05
    24   6     0.02  -0.02   0.03    -0.09   0.01  -0.02    -0.08  -0.07   0.03
    25   7     0.05  -0.08   0.01    -0.09   0.03  -0.02    -0.00   0.01  -0.02
    26   6     0.04  -0.03   0.03    -0.08  -0.00   0.00    -0.06  -0.03   0.06
    27   6     0.09  -0.04   0.02    -0.10   0.03  -0.03    -0.06  -0.04   0.00
    28  15     0.06  -0.05   0.03    -0.10   0.02  -0.02    -0.06  -0.05   0.03
    29   6     0.11   0.14   0.05    -0.04   0.05  -0.04    -0.00  -0.01  -0.01
    30   6     0.09   0.18   0.05     0.00   0.08  -0.04     0.09   0.03  -0.01
    31   6    -0.04   0.05   0.02    -0.01   0.05  -0.02     0.10   0.01   0.03
    32   6    -0.13  -0.12  -0.01    -0.06  -0.00   0.00     0.02  -0.05   0.07
    33   6    -0.09  -0.14  -0.00    -0.10  -0.02   0.00    -0.07  -0.08   0.07
    34   6     0.05  -0.01   0.02    -0.10  -0.06   0.00    -0.05  -0.01   0.03
    35   6     0.03  -0.00  -0.02    -0.07  -0.10  -0.00    -0.08   0.01  -0.02
    36   6     0.00  -0.02  -0.05    -0.02  -0.08   0.01    -0.12  -0.00  -0.02
    37   6    -0.00  -0.04  -0.03    -0.01  -0.03   0.02    -0.13  -0.03   0.03
    38   6     0.02  -0.04   0.01    -0.04   0.01   0.01    -0.10  -0.04   0.07
    39   6    -0.00  -0.05  -0.05    -0.09   0.02  -0.05    -0.04  -0.07  -0.02
    40   6    -0.09  -0.04  -0.13     0.00   0.02  -0.03     0.01  -0.06  -0.03
    41   6    -0.07  -0.02  -0.13     0.09   0.04   0.02     0.04  -0.02  -0.02
    42   6     0.05  -0.01  -0.04     0.07   0.05   0.03     0.02  -0.00   0.00
    43   6     0.13  -0.02   0.03    -0.03   0.05  -0.00    -0.03  -0.01   0.01
    44   1    -0.01   0.03   0.03    -0.02  -0.07   0.01    -0.03  -0.15   0.04
    45   1    -0.05  -0.05   0.04     0.02  -0.02  -0.01     0.00  -0.12   0.02
    46   1    -0.07  -0.07   0.04     0.05   0.03  -0.03     0.10   0.03  -0.03
    47   1    -0.04  -0.01   0.02     0.03   0.02  -0.03     0.12   0.10  -0.05
    48   1     0.01   0.05   0.01    -0.07  -0.05   0.04     0.04  -0.01   0.04
[...]
 Vib (Bot)    6  0.428994D+01          0.632451          1.456273
 Vib (Bot)    7  0.412931D+01          0.615877          1.418110
 Vib (Bot)    8  0.392983D+01          0.594374          1.368597
 Vib (Bot)    9  0.331591D+01          0.520603          1.198732
 Vib (Bot)   10  0.305345D+01          0.484791          1.116272
 Vib (Bot)   11  0.292631D+01          0.466320          1.073741
 Vib (Bot)   12  0.260670D+01          0.416090          0.958084
 Vib (Bot)   13  0.223364D+01          0.349013          0.803633
 Vib (Bot)   14  0.220272D+01          0.342960          0.789695
 Vib (Bot)   15  0.210802D+01          0.323874          0.745747
 Vib (Bot)   16  0.200694D+01          0.302535          0.696612
 Vib (Bot)   17  0.182077D+01          0.260255          0.599258
 Vib (Bot)   18  0.161104D+01          0.207106          0.476878
 Vib (Bot)   19  0.138878D+01          0.142633          0.328425
 Vib (Bot)   20  0.121831D+01          0.085758          0.197466
 Vib (Bot)   21  0.109825D+01          0.040700          0.093715
 Vib (Bot)   22  0.103967D+01          0.016895          0.038902
 Vib (Bot)   23  0.950722D+00         -0.021947         -0.050534
 Vib (Bot)   24  0.891302D+00         -0.049975         -0.115072
 Vib (Bot)   25  0.866882D+00         -0.062040         -0.142852
 Vib (Bot)   26  0.703166D+00         -0.152942         -0.352163
 Vib (Bot)   27  0.690521D+00         -0.160823         -0.370309
 Vib (Bot)   28  0.661861D+00         -0.179233         -0.412700
 Vib (Bot)   29  0.643762D+00         -0.191275         -0.440426
 Vib (Bot)   30  0.624201D+00         -0.204676         -0.471283
 Vib (Bot)   31  0.616153D+00         -0.210312         -0.484260
 Vib (Bot)   32  0.597602D+00         -0.223588         -0.514830
 Vib (Bot)   33  0.561587D+00         -0.250583         -0.576988
 Vib (Bot)   34  0.481906D+00         -0.317037         -0.730006
 Vib (Bot)   35  0.455230D+00         -0.341769         -0.786952
 Vib (Bot)   36  0.426788D+00         -0.369787         -0.851467
 Vib (Bot)   37  0.403093D+00         -0.394595         -0.908588
 Vib (Bot)   38  0.366680D+00         -0.435713         -1.003267
 Vib (Bot)   39  0.362852D+00         -0.440271         -1.013761
 Vib (Bot)   40  0.357858D+00         -0.446290         -1.027620
 Vib (Bot)   41  0.354043D+00         -0.450944         -1.038337
 Vib (Bot)   42  0.349461D+00         -0.456601         -1.051364
 Vib (Bot)   43  0.344788D+00         -0.462448         -1.064825
 Vib (Bot)   44  0.321830D+00         -0.492373         -1.133731
 Vib (Bot)   45  0.318635D+00         -0.496707         -1.143709
 Vib (Bot)   46  0.310068D+00         -0.508543         -1.170964
 Vib (Bot)   47  0.307937D+00         -0.511538         -1.177859
 Vib (Bot)   48  0.298433D+00         -0.525153         -1.209209
 Vib (Bot)   49  0.286784D+00         -0.542446         -1.249027
 Vib (Bot)   50  0.272028D+00         -0.565386         -1.301851
 Vib (Bot)   51  0.268560D+00         -0.570958         -1.314679
 Vib (Bot)   52  0.256805D+00         -0.590397         -1.359439
 Vib (Bot)   53  0.249347D+00         -0.603196         -1.388909
 Vib (Bot)   54  0.243545D+00         -0.613420         -1.412452
 Vib (Bot)   55  0.241852D+00         -0.616450         -1.419428
 Vib (V=0)       0.932545D+15         14.969670         34.468939
 Vib (V=0)    1  0.186007D+02          1.269530          2.923202
 Vib (V=0)    2  0.835543D+01          0.921969          2.122911
 Vib (V=0)    3  0.763666D+01          0.882903          2.032960
 Vib (V=0)    4  0.581440D+01          0.764505          1.760338
 Vib (V=0)    5  0.534818D+01          0.728206          1.676757
 Vib (V=0)    6  0.481898D+01          0.682955          1.572563
 Vib (V=0)    7  0.465947D+01          0.668337          1.538902
 Vib (V=0)    8  0.446151D+01          0.649482          1.495488
 Vib (V=0)    9  0.385340D+01          0.585844          1.348955
 Vib (V=0)   10  0.359412D+01          0.555592          1.279298
 Vib (V=0)   11  0.346871D+01          0.540168          1.243784
 Vib (V=0)   12  0.315422D+01          0.498892          1.148740
 Vib (V=0)   13  0.278892D+01          0.445436          1.025654
 Vib (V=0)   14  0.275876D+01          0.440714          1.014781
 Vib (V=0)   15  0.266650D+01          0.425942          0.980767
 Vib (V=0)   16  0.256829D+01          0.409644          0.943240
 Vib (V=0)   17  0.238817D+01          0.378066          0.870529
 Vib (V=0)   18  0.218684D+01          0.339818          0.782459
 Vib (V=0)   19  0.197604D+01          0.295797          0.681097
 Vib (V=0)   20  0.181692D+01          0.259336          0.597144
 Vib (V=0)   21  0.170671D+01          0.232159          0.534567
 Vib (V=0)   22  0.165365D+01          0.218444          0.502985
 Vib (V=0)   23  0.157418D+01          0.197056          0.453737
 Vib (V=0)   24  0.152197D+01          0.182406          0.420005
 Vib (V=0)   25  0.150074D+01          0.176306          0.405960
 Vib (V=0)   26  0.136281D+01          0.134435          0.309549
 Vib (V=0)   27  0.135254D+01          0.131149          0.301982
 Vib (V=0)   28  0.132949D+01          0.123686          0.284798
 Vib (V=0)   29  0.131513D+01          0.118967          0.273932
 Vib (V=0)   30  0.129977D+01          0.113865          0.262185
 Vib (V=0)   31  0.129350D+01          0.111767          0.257353
 Vib (V=0)   32  0.127918D+01          0.106933          0.246223
 Vib (V=0)   33  0.125192D+01          0.097576          0.224676
 Vib (V=0)   34  0.119443D+01          0.077161          0.177670
 Vib (V=0)   35  0.117619D+01          0.070478          0.162282
 Vib (V=0)   36  0.115738D+01          0.063476          0.146159
 Vib (V=0)   37  0.114225D+01          0.057761          0.132999
 Vib (V=0)   38  0.112004D+01          0.049235          0.113367
 Vib (V=0)   39  0.111779D+01          0.048359          0.111351
 Vib (V=0)   40  0.111487D+01          0.047223          0.108736
 Vib (V=0)   41  0.111266D+01          0.046361          0.106749
 Vib (V=0)   42  0.111002D+01          0.045330          0.104377
 Vib (V=0)   43  0.110735D+01          0.044287          0.101973
 Vib (V=0)   44  0.109462D+01          0.039264          0.090409
 Vib (V=0)   45  0.109290D+01          0.038580          0.088833
 Vib (V=0)   46  0.108834D+01          0.036764          0.084652
 Vib (V=0)   47  0.108722D+01          0.036317          0.083622
 Vib (V=0)   48  0.108229D+01          0.034344          0.079080
 Vib (V=0)   49  0.107641D+01          0.031976          0.073628
 Vib (V=0)   50  0.106921D+01          0.029063          0.066919
 Vib (V=0)   51  0.106756D+01          0.028392          0.065376
 Vib (V=0)   52  0.106209D+01          0.026163          0.060242
 Vib (V=0)   53  0.105873D+01          0.024783          0.057066
 Vib (V=0)   54  0.105616D+01          0.023730          0.054640
 Vib (V=0)   55  0.105542D+01          0.023426          0.053940
 Electronic      0.100000D+01          0.000000          0.000000
 Translational   0.430330D+09          8.633801         19.880062
 Rotational      0.418547D+08          7.621744         17.549713
 ***** Axes restored to original set *****
 -------------------------------------------------------------------
 Center     Atomic                   Forces (Hartrees/Bohr)
 Number     Number              X              Y              Z
 -------------------------------------------------------------------
      1        6          -0.000000099   -0.000000703    0.000001664
      2        6          -0.000000759    0.000000114   -0.000000849
      3        6           0.000000821   -0.000001035   -0.000000023
      4        6           0.000000779   -0.000001650   -0.000000975
      5        6          -0.000001882    0.000002000    0.000005050
      6        6           0.000002325   -0.000001593   -0.000004160
      7        6          -0.000005560   -0.000002416    0.000005353
      8        8           0.000000936   -0.000006293   -0.000005749
      9        8           0.000000271   -0.000001254    0.000000080
     10       16          -0.000005630    0.000005345    0.000003511
     11        7          -0.000000066    0.000000509    0.000002626
     12        8           0.000001844   -0.000006174   -0.000000693
     13        6          -0.000001344   -0.000001608    0.000001764
     14        6          -0.000001251   -0.000000040    0.000000399
     15        6          -0.000000602    0.000000056    0.000001321
     16        6          -0.000000679   -0.000001364   -0.000000096
     17        6          -0.000000785   -0.000000043    0.000001467
     18        8          -0.000002919   -0.000000833    0.000003834
     19        6          -0.000000991    0.000001828    0.000000803
     20        6          -0.000000570   -0.000000941   -0.000002092
     21        8           0.000000781   -0.000000751    0.000002137
     22        6          -0.000001654   -0.000001401   -0.000002025
     23        7           0.000008341    0.000002642   -0.000000951
     24        6          -0.000002863    0.000000580   -0.000002650
     25        7          -0.000001374    0.000003604   -0.000005657
     26        6          -0.000004076    0.000003578   -0.000000416
     27        6          -0.000000445   -0.000002083   -0.000000200
     28       15           0.000005177   -0.000002914    0.000009397
     29        6           0.000004677    0.000000029    0.000001393
     30        6           0.000000532   -0.000000261   -0.000001443
     31        6          -0.000001013    0.000000067   -0.000000783
     32        6           0.000000251   -0.000001156    0.000000524
     33        6          -0.000001259   -0.000002252    0.000001780
     34        6           0.000001464    0.000001513   -0.000000267
     35        6          -0.000000302   -0.000000236    0.000000791
     36        6          -0.000001335    0.000001924    0.000000593
     37        6          -0.000001032    0.000001235    0.000000696
     38        6           0.000000347    0.000001797   -0.000000960
     39        6           0.000000453    0.000002547   -0.000000791
     40        6           0.000002093   -0.000000469   -0.000002650
     41        6           0.000001024    0.000000198    0.000000386
     42        6           0.000001033    0.000002369   -0.000000418
     43        6          -0.000000926    0.000001406   -0.000000722
     44        1           0.000000591   -0.000000568   -0.000000092
     45        1           0.000000395   -0.000000453   -0.000000250
     46        1           0.000000049   -0.000000848   -0.000000032
     47        1          -0.000000132   -0.000001235   -0.000000059
     48        1           0.000000841    0.000000244   -0.000000782
     49        1           0.000005053   -0.000004565   -0.000009961
     50        1          -0.000001078   -0.000000106    0.000000132
     51        1          -0.000001033    0.000000073    0.000000808
     52        1          -0.000001034   -0.000000140    0.000000751
     53        1          -0.000001450    0.000000886    0.000001337
     54        1          -0.000000253    0.000000304   -0.000000309
     55        1          -0.000000368    0.000000437    0.000000531
     56        1           0.000000274    0.000000070   -0.000000061
     57        1           0.000000222   -0.000000557   -0.000000220
     58        1           0.000000532   -0.000001004    0.000000738
     59        1           0.000001318    0.000001806   -0.000001845
     60        1           0.000000355    0.000000760   -0.000000817
     61        1          -0.000000367    0.000001799    0.000000262
     62        1          -0.000000654    0.000001487    0.000000683
     63        1          -0.000001252    0.000001180    0.000000946
     64        1          -0.000001165    0.000000563    0.000000479
     65        1           0.000001131   -0.000000872   -0.000001069
     66        1           0.000001329    0.000000551   -0.000000787
     67        1           0.000001170    0.000001263   -0.000001108
     68        1           0.000001105    0.000001498   -0.000000450
     69        1           0.000000694    0.000001555    0.000000178
 -------------------------------------------------------------------
 Cartesian Forces:  Max     0.000009961 RMS     0.000002180
 FormGI is forming the generalized inverse of G from B-inverse, IUseBI=4.

 ----------------------------------------------------------------------

 Electric dipole moment (input orientation):
 (Debye = 10**-18 statcoulomb cm , SI units = C m)
                  (au)            (Debye)         (10**-30 SI)
   Tot        0.868186D+01      0.220671D+02      0.736079D+02
   x          0.767966D+01      0.195197D+02      0.651109D+02
   y         -0.302041D+01     -0.767712D+01     -0.256081D+02
   z         -0.269716D+01     -0.685550D+01     -0.228675D+02

 Dipole polarizability, Alpha (input orientation).
 (esu units = cm**3 , SI units = C**2 m**2 J**-1)
 Alpha(0;0):
               (au)            (10**-24 esu)      (10**-40 SI)
   iso        0.503905D+03      0.746710D+02      0.830827D+02
   aniso      0.866897D+02      0.128461D+02      0.142932D+02
   xx         0.544992D+03      0.807595D+02      0.898571D+02
   yx         0.152778D+02      0.226394D+01      0.251897D+01
   yy         0.465162D+03      0.689299D+02      0.766948D+02
   zx        -0.186536D+02     -0.276417D+01     -0.307556D+01
   zy        -0.180645D+02     -0.267688D+01     -0.297843D+01
   zz         0.501561D+03      0.743237D+02      0.826963D+02

 ----------------------------------------------------------------------

 Dipole orientation:
     6         -7.46233917          1.94060716         -3.05940265
     6         -9.66828430          1.03538435         -4.15505674
     6         -9.76533992          0.64176469         -6.75679330
     6         -7.67362088          1.17668089         -8.24768730
     6         -5.47917535          2.07489071         -7.12310887
     6         -5.32845575          2.44755947         -4.51878631
     6         -2.93212444          3.48245460         -3.28286275
     8          0.80769617          4.12563767         -9.38575189
     8         -2.55250595          6.99185551         -7.59447373
    16         -1.33390488          4.54671555         -7.76080592
     7         -0.70007194          3.52820300         -4.93638306
     8         -3.46561711          2.52771031         -8.75185424
     6          4.14910077         -5.09135042         -2.50169054
     6          5.17857092         -7.29190770         -1.49220526
     6          3.62917244         -9.36186989         -0.99106342
     6          1.04525377         -9.21696700         -1.48958322
     6          0.02190164         -7.00944841         -2.48985562
     8          1.92777112         -0.68684823         -4.40872935
     6          1.56359241         -4.93133128         -3.00495578
     6          0.40323076         -2.52469827         -4.04914287
     8         -1.91777085         -2.45549385         -4.40848632
     6         -2.26404406          1.93645944         -1.07825026
     7         -1.49616621          0.63422630          0.48798900
     6          3.92972285          1.32785908          3.20149661
     7         -0.76744578         -1.10504294          2.01411448
     6          1.95567880         -3.20720728          5.78668140
     6         -0.40695852          1.78422791          6.59886141
    15          1.13423751         -0.24952832          4.34471392
     6          5.54465051          2.55799298          4.90212574
     6          7.76030205          3.65706160          4.02426091
     6          8.36494732          3.53778225          1.46109217
     6          6.75912647          2.31302589         -0.22254832
     6          4.53981623          1.19036618          0.63541326
     6          2.93274881         -3.23533137          8.24491820
     6          3.70622776         -5.50845360          9.30746758
     6          3.51527581         -7.74015373          7.92148385
     6          2.56191592         -7.70285458          5.46960966
     6          1.78684814         -5.43883322          4.38199508
     6         -0.25632807          4.41196235          6.32413314
     6         -1.64005316          5.97257844          7.92309146
     6         -3.17594341          4.92213709          9.78393822
     6         -3.34817186          2.30697122         10.04575037
     6         -1.97921802          0.73292333          8.45147777
     1         -7.38461337          2.24228550         -1.02868604
     1        -11.30192757          0.63688491         -2.98316529
     1        -11.47681940         -0.06911199         -7.63375193
     1         -7.70288085          0.90827366        -10.27906263
     1         -3.29294790          5.40895095         -2.60659945
     1          0.34688343          1.77692598         -4.94361474
     1          5.33773860         -3.47218707         -2.91269196
     1          7.19082781         -7.39587183         -1.10065437
     1          4.43205915        -11.08317457         -0.21133104
     1         -0.16871792        -10.82578803         -1.09883137
     1         -1.98419140         -6.85619467         -2.88552614
     1          5.07552364          2.67649633          6.89719388
     1          9.01163306          4.61226554          5.33790188
     1         10.09386417          4.40700209          0.78059483
     1          7.21651693          2.22143794         -2.21945607
     1          3.32811195          0.24038104         -0.72775215
     1          3.07439384         -1.50492454          9.33983600
     1          4.45232374         -5.53670275         11.21680308
     1          4.11723613         -9.51389021          8.75771006
     1          2.42353000         -9.43488849          4.38192981
     1          1.05719235         -5.41167213          2.46493645
     1          0.94337984          5.24230066          4.88214176
     1         -1.51344144          8.00811880          7.71521679
     1         -4.24756743          6.14547742         11.03361642
     1         -4.55066700          1.49138368         11.49203452
     1         -2.12801958         -1.30292928          8.65614767

 Electric dipole moment (dipole orientation):
 (Debye = 10**-18 statcoulomb cm , SI units = C m)
                  (au)            (Debye)         (10**-30 SI)
   Tot        0.868186D+01      0.220671D+02      0.736079D+02
   x          0.000000D+00      0.000000D+00      0.000000D+00
   y          0.000000D+00      0.000000D+00      0.000000D+00
   z          0.868186D+01      0.220671D+02      0.736079D+02

 Dipole polarizability, Alpha (dipole orientation).
 (esu units = cm**3 , SI units = C**2 m**2 J**-1)
 Alpha(0;0):
               (au)            (10**-24 esu)      (10**-40 SI)
   iso        0.503905D+03      0.746710D+02      0.830827D+02
   aniso      0.866897D+02      0.128461D+02      0.142932D+02
   xx         0.488697D+03      0.724174D+02      0.805752D+02
   yx         0.115035D+02      0.170464D+01      0.189667D+01
   yy         0.494936D+03      0.733420D+02      0.816040D+02
   zx         0.141038D+02      0.208996D+01      0.232540D+01
   zy        -0.415409D+02     -0.615572D+01     -0.684917D+01
   zz         0.528083D+03      0.782538D+02      0.870690D+02

 ----------------------------------------------------------------------

 This type of calculation cannot be archived.


 SEEN ON A WALL AT THE UNIVERSITY OF ILLINOIS AT CHICAGO CIRCLE:

 TO DO IS TO BE  -- SOCRATES
 TO BE IS TO DO  -- SARTRE
 OO BE DO BE DO  -- SINATRA
 Job cpu time:       0 days  0 hours  0 minutes  2.6 seconds.
 Elapsed time:       0 days  0 hours  0 minutes  0.7 seconds.
 File lengths (MBytes):  RWF=     10 Int=      0 D2E=      0 Chk=     12 Scr=      1
 Normal termination of Gaussian 16 at Sat Apr  4 19:46:15 2020.
