 Entering Gaussian System, Link 0=g16
 Initial command:
 /apps/cent7/gaussian/g16-A.03/g16-haswell/g16/l1.exe "/scratch/brown/finej/0051_imine_mechanism/ts_631gd/cyclic_complete_2/new_logs_2/Gau-213264.inp" -scrdir="/scratch/brown/finej/0051_imine_mechanism/ts_631gd/cyclic_complete_2/new_logs_2/"
 Entering Link 1 = /apps/cent7/gaussian/g16-A.03/g16-haswell/g16/l1.exe PID=    213265.
  
 Copyright (c) 1988,1990,1992,1993,1995,1998,2003,2009,2016,
            Gaussian, Inc.  All Rights Reserved.
  
 This is part of the Gaussian(R) 16 program.  It is based on
 the Gaussian(R) 09 system (copyright 2009, Gaussian, Inc.),
 the Gaussian(R) 03 system (copyright 2003, Gaussian, Inc.),
 the Gaussian(R) 98 system (copyright 1998, Gaussian, Inc.),
 the Gaussian(R) 94 system (copyright 1995, Gaussian, Inc.),
 the Gaussian 92(TM) system (copyright 1992, Gaussian, Inc.),
 the Gaussian 90(TM) system (copyright 1990, Gaussian, Inc.),
 the Gaussian 88(TM) system (copyright 1988, Gaussian, Inc.),
 the Gaussian 86(TM) system (copyright 1986, Carnegie Mellon
 University), and the Gaussian 82(TM) system (copyright 1983,
 Carnegie Mellon University). Gaussian is a federally registered
 trademark of Gaussian, Inc.
  
 This software contains proprietary and confidential information,
 including trade secrets, belonging to Gaussian, Inc.
  
 This software is provided under written license and may be
 used, copied, transmitted, or stored only in accord with that
 written license.
  
 The following legend is applicable only to US Government
 contracts under FAR:
  
                    RESTRICTED RIGHTS LEGEND
  
 Use, reproduction and disclosure by the US Government is
 subject to restrictions as set forth in subparagraphs (a)
 and (c) of the Commercial Computer Software - Restricted
 Rights clause in FAR 52.227-19.
  
 Gaussian, Inc.
 340 Quinnipiac St., Bldg. 40, Wallingford CT 06492
  
  
 ---------------------------------------------------------------
 Warning -- This program may not be used in any manner that
 competes with the business of Gaussian, Inc. or will provide
 assistance to any competitor of Gaussian, Inc.  The licensee
 of this program is prohibited from giving any competitor of
 Gaussian, Inc. access to this program.  By using this program,
 the user acknowledges that Gaussian, Inc. is engaged in the
 business of creating and licensing software in the field of
 computational chemistry and represents and warrants to the
 licensee that it is not a competitor of Gaussian, Inc. and that
 it will not use this program in any manner prohibited above.
 ---------------------------------------------------------------
  

 Cite this work as:
 Gaussian 16, Revision A.03,
 M. J. Frisch, G. W. Trucks, H. B. Schlegel, G. E. Scuseria, 
 M. A. Robb, J. R. Cheeseman, G. Scalmani, V. Barone, 
 G. A. Petersson, H. Nakatsuji, X. Li, M. Caricato, A. V. Marenich, 
 J. Bloino, B. G. Janesko, R. Gomperts, B. Mennucci, H. P. Hratchian, 
 J. V. Ortiz, A. F. Izmaylov, J. L. Sonnenberg, D. Williams-Young, 
 F. Ding, F. Lipparini, F. Egidi, J. Goings, B. Peng, A. Petrone, 
 T. Henderson, D. Ranasinghe, V. G. Zakrzewski, J. Gao, N. Rega, 
 G. Zheng, W. Liang, M. Hada, M. Ehara, K. Toyota, R. Fukuda, 
 J. Hasegawa, M. Ishida, T. Nakajima, Y. Honda, O. Kitao, H. Nakai, 
 T. Vreven, K. Throssell, J. A. Montgomery, Jr., J. E. Peralta, 
 F. Ogliaro, M. J. Bearpark, J. J. Heyd, E. N. Brothers, K. N. Kudin, 
 V. N. Staroverov, T. A. Keith, R. Kobayashi, J. Normand, 
 K. Raghavachari, A. P. Rendell, J. C. Burant, S. S. Iyengar, 
 J. Tomasi, M. Cossi, J. M. Millam, M. Klene, C. Adamo, R. Cammi, 
 J. W. Ochterski, R. L. Martin, K. Morokuma, O. Farkas, 
 J. B. Foresman, and D. J. Fox, Gaussian, Inc., Wallingford CT, 2016.
 
 ******************************************
 Gaussian 16:  ES64L-G16RevA.03 25-Dec-2016
                 4-Apr-2020 
 ******************************************
 %nprocshared=4
 Will use up to    4 processors via shared memory.
 %mem=1GB
 %oldchk=chk/cyclic_2_to_3.chk
 Copying data from "chk/cyclic_2_to_3.chk" to current chk file "/scratch/brown/finej/0051_imine_mechanism/ts_631gd/cyclic_complete_2/new_logs_2/Gau-213265.chk"
 IOpt=  2 FromEx=T IUOpen= 4 IOptOp= 5 NList=   0 IFRang= 0 IUIn= 4 IUOut= 2.
 ----------------------------------------------------------------------
 # freq=readfc wb97xd/6-31g(d) scrf=solvent=dichloromethane geom=check 
 temperature=263.15
 ----------------------------------------------------------------------
 1/29=2,38=1,112=263150,172=1/1;
 2/12=2,40=1/2;
 7/8=1,25=11/16;
 99/5=2/99;
 -------------------------
 Attack by carboxylic acid
 -------------------------
 Structure from the checkpoint file:  "/scratch/brown/finej/0051_imine_mechanism/ts_631gd/cyclic_complete_2/new_logs_2/Gau-213265.chk"
 Charge =  0 Multiplicity = 1
 Redundant internal coordinates found in file.  (old form).
 C,0,-3.4024383579,-0.8424954494,-2.7090803595
 C,0,-4.2953961891,-0.4678425791,-3.7038643383
 C,0,-5.4998644916,0.1423857996,-3.3577825067
 C,0,-5.8093834793,0.3628791289,-2.022532914
 C,0,-4.9022380099,-0.0144964807,-1.0406472255
 C,0,-3.6842950568,-0.6099895171,-1.3631892114
 C,0,-2.6860398242,-1.0408746983,-0.2951666221
 O,0,-4.8630993276,-0.0021877565,2.6600008995
 O,0,-5.086463885,-2.0404366753,1.1891954041
 S,0,-4.611930779,-0.693277536,1.4219874791
 N,0,-3.0250793426,-0.6197097712,1.0738925956
 O,0,-5.2782251272,0.26435236,0.2724697506
 C,0,0.3813496369,3.6554479888,1.3626138107
 C,0,1.3289659508,4.6658029952,1.2278634746
 C,0,1.5648609058,5.2377657755,-0.0211074576
 C,0,0.8564778818,4.7904609088,-1.1362072419
 C,0,-0.0849967182,3.774733309,-1.000365336
 O,0,-1.5140523818,1.5969487538,1.5394932605
 C,0,-0.3300237707,3.2035500723,0.2498087927
 C,0,-1.3109461241,2.0638554021,0.3854887618
 O,0,-1.82887803,1.6065427442,-0.6743541465
 C,0,-1.3429448012,-0.5061650149,-0.5717115743
 N,0,-0.1736148449,-0.5358054254,-0.6335811366
 C,0,2.1092264846,-0.9421721147,1.610578649
 N,0,0.9604476186,0.0999902808,-0.7858552104
 C,0,3.5912281372,0.5727341612,-0.4262518627
 C,0,2.7253768243,-2.1999019448,-0.9596568092
 P,0,2.2906364091,-0.6403892667,-0.1622519836
 C,0,2.9998378867,-1.7812908465,2.2913906108
 C,0,2.8817048472,-1.941230968,3.6666422492
 C,0,1.8787620583,-1.2679538727,4.363271579
 C,0,0.9971558132,-0.4297712754,3.6867044899
 C,0,1.1104486972,-0.2572732347,2.3103272796
 C,0,4.932454636,0.1883237224,-0.3177312491
 C,0,5.9345510852,1.1432196936,-0.4425818063
 C,0,5.6002389361,2.4775502639,-0.6677043076
 C,0,4.264823286,2.8596625776,-0.764970365
 C,0,3.2533772604,1.9127589975,-0.6403313066
 C,0,2.1905483244,-3.4013300417,-0.4787586786
 C,0,2.4199763269,-4.5867513808,-1.168931602
 C,0,3.1762244877,-4.5774316942,-2.33839713
 C,0,3.6993605286,-3.3816851095,-2.8267854623
 C,0,3.4707569734,-2.1921182429,-2.1453329415
 H,0,-2.4606706318,-1.3136397067,-2.9786827466
 H,0,-4.0520282863,-0.6502063321,-4.7450281898
 H,0,-6.2045513212,0.4402467187,-4.127081402
 H,0,-6.7436942256,0.824379886,-1.7225331155
 H,0,-2.5900728796,-2.1343300994,-0.3090246166
 H,0,-2.5776138336,0.2999513995,1.3397498427
 H,0,0.1883375932,3.1983509967,2.3275158465
 H,0,1.8840408011,5.0078718905,2.096375803
 H,0,2.3013366998,6.0295152453,-0.1263438231
 H,0,1.0413338719,5.2318925047,-2.1112127106
 H,0,-0.6338230521,3.4035871575,-1.8591266961
 H,0,3.7778582241,-2.315720889,1.7535373516
 H,0,3.5698723115,-2.5937361856,4.1939953247
 H,0,1.7863204808,-1.3988424092,5.4369162803
 H,0,0.2146787952,0.0950228086,4.2250503539
 H,0,0.4149665925,0.406966175,1.8034992443
 H,0,5.1990736751,-0.8510117523,-0.1474895702
 H,0,6.9749459833,0.8452150964,-0.3652810386
 H,0,6.3848709729,3.2214211405,-0.7650580675
 H,0,4.0007478683,3.8983540619,-0.9342712085
 H,0,2.2120188841,2.2106215618,-0.7102975118
 H,0,1.6022697438,-3.4166843605,0.4335524034
 H,0,2.008677383,-5.5170140002,-0.7912896141
 H,0,3.3568057715,-5.504670379,-2.8729241678
 H,0,4.2852345501,-3.3744458002,-3.7399443484
 H,0,3.8756395062,-1.2625886593,-2.5336154726
 Recover connectivity data from disk.
                           ----------------------------
                           !    Current Parameters    !
                           ! (Angstroms and Degrees)  !
 --------------------------                            --------------------------
 ! Name  Definition              Value          Derivative Info.                !
 --------------------------------------------------------------------------------
 ! R1    R(1,2)                  1.3883         estimate D2E/DX2                !
 ! R2    R(1,6)                  1.3946         estimate D2E/DX2                !
 ! R3    R(1,44)                 1.087          estimate D2E/DX2                !
 ! R4    R(2,3)                  1.3939         estimate D2E/DX2                !
 ! R5    R(2,45)                 1.0847         estimate D2E/DX2                !
 ! R6    R(3,4)                  1.3883         estimate D2E/DX2                !
 ! R7    R(3,46)                 1.085          estimate D2E/DX2                !
 ! R8    R(4,5)                  1.389          estimate D2E/DX2                !
 ! R9    R(4,47)                 1.0844         estimate D2E/DX2                !
 ! R10   R(5,6)                  1.3936         estimate D2E/DX2                !
 ! R11   R(5,12)                 1.3941         estimate D2E/DX2                !
 ! R12   R(6,7)                  1.5241         estimate D2E/DX2                !
 ! R13   R(7,11)                 1.472          estimate D2E/DX2                !
 ! R14   R(7,22)                 1.4718         estimate D2E/DX2                !
 ! R15   R(7,48)                 1.0977         estimate D2E/DX2                !
 ! R16   R(8,10)                 1.4399         estimate D2E/DX2                !
 ! R17   R(9,10)                 1.4471         estimate D2E/DX2                !
 ! R18   R(10,11)                1.6262         estimate D2E/DX2                !
 ! R19   R(10,12)                1.6378         estimate D2E/DX2                !
 ! R20   R(11,49)                1.0567         estimate D2E/DX2                !
 ! R21   R(13,14)                1.3917         estimate D2E/DX2                !
 ! R22   R(13,19)                1.3959         estimate D2E/DX2                !
 ! R23   R(13,50)                1.085          estimate D2E/DX2                !
 ! R24   R(14,15)                1.3938         estimate D2E/DX2                !
 ! R25   R(14,51)                1.086          estimate D2E/DX2                !
 ! R26   R(15,16)                1.3948         estimate D2E/DX2                !
 ! R27   R(15,52)                1.0864         estimate D2E/DX2                !
 ! R28   R(16,17)                1.3916         estimate D2E/DX2                !
 ! R29   R(16,53)                1.0861         estimate D2E/DX2                !
 ! R30   R(17,19)                1.3961         estimate D2E/DX2                !
 ! R31   R(17,54)                1.0846         estimate D2E/DX2                !
 ! R32   R(18,20)                1.2613         estimate D2E/DX2                !
 ! R33   R(18,49)                1.6892         estimate D2E/DX2                !
 ! R34   R(19,20)                1.5098         estimate D2E/DX2                !
 ! R35   R(20,21)                1.2652         estimate D2E/DX2                !
 ! R36   R(22,23)                1.1713         estimate D2E/DX2                !
 ! R37   R(23,25)                1.309          estimate D2E/DX2                !
 ! R38   R(24,28)                1.8075         estimate D2E/DX2                !
 ! R39   R(24,29)                1.4003         estimate D2E/DX2                !
 ! R40   R(24,33)                1.3987         estimate D2E/DX2                !
 ! R41   R(25,28)                1.6451         estimate D2E/DX2                !
 ! R42   R(26,28)                1.798          estimate D2E/DX2                !
 ! R43   R(26,34)                1.3994         estimate D2E/DX2                !
 ! R44   R(26,38)                1.3984         estimate D2E/DX2                !
 ! R45   R(27,28)                1.8047         estimate D2E/DX2                !
 ! R46   R(27,39)                1.4003         estimate D2E/DX2                !
 ! R47   R(27,43)                1.4005         estimate D2E/DX2                !
 ! R48   R(29,30)                1.3896         estimate D2E/DX2                !
 ! R49   R(29,55)                1.0864         estimate D2E/DX2                !
 ! R50   R(30,31)                1.3944         estimate D2E/DX2                !
 ! R51   R(30,56)                1.0851         estimate D2E/DX2                !
 ! R52   R(31,32)                1.3919         estimate D2E/DX2                !
 ! R53   R(31,57)                1.0855         estimate D2E/DX2                !
 ! R54   R(32,33)                1.3918         estimate D2E/DX2                !
 ! R55   R(32,58)                1.0851         estimate D2E/DX2                !
 ! R56   R(33,59)                1.0871         estimate D2E/DX2                !
 ! R57   R(34,35)                1.3898         estimate D2E/DX2                !
 ! R58   R(34,60)                1.0864         estimate D2E/DX2                !
 ! R59   R(35,36)                1.3939         estimate D2E/DX2                !
 ! R60   R(35,61)                1.085          estimate D2E/DX2                !
 ! R61   R(36,37)                1.3924         estimate D2E/DX2                !
 ! R62   R(36,62)                1.0856         estimate D2E/DX2                !
 ! R63   R(37,38)                1.3911         estimate D2E/DX2                !
 ! R64   R(37,63)                1.085          estimate D2E/DX2                !
 ! R65   R(38,64)                1.0854         estimate D2E/DX2                !
 ! R66   R(39,40)                1.3908         estimate D2E/DX2                !
 ! R67   R(39,65)                1.0856         estimate D2E/DX2                !
 ! R68   R(40,41)                1.3927         estimate D2E/DX2                !
 ! R69   R(40,66)                1.085          estimate D2E/DX2                !
 ! R70   R(41,42)                1.3936         estimate D2E/DX2                !
 ! R71   R(41,67)                1.0854         estimate D2E/DX2                !
 ! R72   R(42,43)                1.3899         estimate D2E/DX2                !
 ! R73   R(42,68)                1.085          estimate D2E/DX2                !
 ! R74   R(43,69)                1.0857         estimate D2E/DX2                !
 ! A1    A(2,1,6)              121.1004         estimate D2E/DX2                !
 ! A2    A(2,1,44)             119.7696         estimate D2E/DX2                !
 ! A3    A(6,1,44)             119.1252         estimate D2E/DX2                !
 ! A4    A(1,2,3)              119.7384         estimate D2E/DX2                !
 ! A5    A(1,2,45)             119.8761         estimate D2E/DX2                !
 ! A6    A(3,2,45)             120.3855         estimate D2E/DX2                !
 ! A7    A(2,3,4)              120.0656         estimate D2E/DX2                !
 ! A8    A(2,3,46)             120.3571         estimate D2E/DX2                !
 ! A9    A(4,3,46)             119.5752         estimate D2E/DX2                !
 ! A10   A(3,4,5)              119.4147         estimate D2E/DX2                !
 ! A11   A(3,4,47)             121.7202         estimate D2E/DX2                !
 ! A12   A(5,4,47)             118.8651         estimate D2E/DX2                !
 ! A13   A(4,5,6)              121.5509         estimate D2E/DX2                !
 ! A14   A(4,5,12)             115.808          estimate D2E/DX2                !
 ! A15   A(6,5,12)             122.6294         estimate D2E/DX2                !
 ! A16   A(1,6,5)              118.1149         estimate D2E/DX2                !
 ! A17   A(1,6,7)              119.7868         estimate D2E/DX2                !
 ! A18   A(5,6,7)              122.077          estimate D2E/DX2                !
 ! A19   A(6,7,11)             114.8357         estimate D2E/DX2                !
 ! A20   A(6,7,22)             111.3041         estimate D2E/DX2                !
 ! A21   A(6,7,48)             109.2703         estimate D2E/DX2                !
 ! A22   A(11,7,22)            106.3196         estimate D2E/DX2                !
 ! A23   A(11,7,48)            108.4747         estimate D2E/DX2                !
 ! A24   A(22,7,48)            106.244          estimate D2E/DX2                !
 ! A25   A(8,10,9)             121.8637         estimate D2E/DX2                !
 ! A26   A(8,10,11)            109.4223         estimate D2E/DX2                !
 ! A27   A(8,10,12)            104.5875         estimate D2E/DX2                !
 ! A28   A(9,10,11)            109.126          estimate D2E/DX2                !
 ! A29   A(9,10,12)            107.3376         estimate D2E/DX2                !
 ! A30   A(11,10,12)           102.7257         estimate D2E/DX2                !
 ! A31   A(7,11,10)            114.261          estimate D2E/DX2                !
 ! A32   A(7,11,49)            112.6734         estimate D2E/DX2                !
 ! A33   A(10,11,49)           113.4972         estimate D2E/DX2                !
 ! A34   A(5,12,10)            115.7494         estimate D2E/DX2                !
 ! A35   A(14,13,19)           120.319          estimate D2E/DX2                !
 ! A36   A(14,13,50)           120.8683         estimate D2E/DX2                !
 ! A37   A(19,13,50)           118.8099         estimate D2E/DX2                !
 ! A38   A(13,14,15)           119.9934         estimate D2E/DX2                !
 ! A39   A(13,14,51)           119.9496         estimate D2E/DX2                !
 ! A40   A(15,14,51)           120.057          estimate D2E/DX2                !
 ! A41   A(14,15,16)           119.9241         estimate D2E/DX2                !
 ! A42   A(14,15,52)           120.0383         estimate D2E/DX2                !
 ! A43   A(16,15,52)           120.0375         estimate D2E/DX2                !
 ! A44   A(15,16,17)           119.9769         estimate D2E/DX2                !
 ! A45   A(15,16,53)           120.0606         estimate D2E/DX2                !
 ! A46   A(17,16,53)           119.9622         estimate D2E/DX2                !
 ! A47   A(16,17,19)           120.3154         estimate D2E/DX2                !
 ! A48   A(16,17,54)           120.9846         estimate D2E/DX2                !
 ! A49   A(19,17,54)           118.6968         estimate D2E/DX2                !
 ! A50   A(20,18,49)           106.1067         estimate D2E/DX2                !
 ! A51   A(13,19,17)           119.4692         estimate D2E/DX2                !
 ! A52   A(13,19,20)           120.2532         estimate D2E/DX2                !
 ! A53   A(17,19,20)           120.2198         estimate D2E/DX2                !
 ! A54   A(18,20,19)           117.7918         estimate D2E/DX2                !
 ! A55   A(18,20,21)           124.5204         estimate D2E/DX2                !
 ! A56   A(19,20,21)           117.6161         estimate D2E/DX2                !
 ! A57   A(7,22,23)            155.7408         estimate D2E/DX2                !
 ! A58   A(22,23,25)           149.1725         estimate D2E/DX2                !
 ! A59   A(28,24,29)           120.8703         estimate D2E/DX2                !
 ! A60   A(28,24,33)           118.726          estimate D2E/DX2                !
 ! A61   A(29,24,33)           120.2896         estimate D2E/DX2                !
 ! A62   A(23,25,28)           115.9644         estimate D2E/DX2                !
 ! A63   A(28,26,34)           119.7711         estimate D2E/DX2                !
 ! A64   A(28,26,38)           119.6194         estimate D2E/DX2                !
 ! A65   A(34,26,38)           120.4393         estimate D2E/DX2                !
 ! A66   A(28,27,39)           119.8466         estimate D2E/DX2                !
 ! A67   A(28,27,43)           119.8328         estimate D2E/DX2                !
 ! A68   A(39,27,43)           119.9203         estimate D2E/DX2                !
 ! A69   A(24,28,25)           111.456          estimate D2E/DX2                !
 ! A70   A(24,28,26)           109.2242         estimate D2E/DX2                !
 ! A71   A(24,28,27)           108.257          estimate D2E/DX2                !
 ! A72   A(25,28,26)           103.0363         estimate D2E/DX2                !
 ! A73   A(25,28,27)           114.5943         estimate D2E/DX2                !
 ! A74   A(26,28,27)           110.1152         estimate D2E/DX2                !
 ! A75   A(24,29,30)           119.7419         estimate D2E/DX2                !
 ! A76   A(24,29,55)           120.6355         estimate D2E/DX2                !
 ! A77   A(30,29,55)           119.6206         estimate D2E/DX2                !
 ! A78   A(29,30,31)           120.0003         estimate D2E/DX2                !
 ! A79   A(29,30,56)           119.755          estimate D2E/DX2                !
 ! A80   A(31,30,56)           120.2444         estimate D2E/DX2                !
 ! A81   A(30,31,32)           120.229          estimate D2E/DX2                !
 ! A82   A(30,31,57)           119.8104         estimate D2E/DX2                !
 ! A83   A(32,31,57)           119.9605         estimate D2E/DX2                !
 ! A84   A(31,32,33)           120.2491         estimate D2E/DX2                !
 ! A85   A(31,32,58)           120.4506         estimate D2E/DX2                !
 ! A86   A(33,32,58)           119.3003         estimate D2E/DX2                !
 ! A87   A(24,33,32)           119.4853         estimate D2E/DX2                !
 ! A88   A(24,33,59)           121.5203         estimate D2E/DX2                !
 ! A89   A(32,33,59)           118.9941         estimate D2E/DX2                !
 ! A90   A(26,34,35)           119.6919         estimate D2E/DX2                !
 ! A91   A(26,34,60)           120.6733         estimate D2E/DX2                !
 ! A92   A(35,34,60)           119.6315         estimate D2E/DX2                !
 ! A93   A(34,35,36)           119.9529         estimate D2E/DX2                !
 ! A94   A(34,35,61)           119.7541         estimate D2E/DX2                !
 ! A95   A(36,35,61)           120.2929         estimate D2E/DX2                !
 ! A96   A(35,36,37)           120.2657         estimate D2E/DX2                !
 ! A97   A(35,36,62)           119.8077         estimate D2E/DX2                !
 ! A98   A(37,36,62)           119.9264         estimate D2E/DX2                !
 ! A99   A(36,37,38)           120.2824         estimate D2E/DX2                !
 ! A100  A(36,37,63)           120.4659         estimate D2E/DX2                !
 ! A101  A(38,37,63)           119.2511         estimate D2E/DX2                !
 ! A102  A(26,38,37)           119.3609         estimate D2E/DX2                !
 ! A103  A(26,38,64)           120.3068         estimate D2E/DX2                !
 ! A104  A(37,38,64)           120.3323         estimate D2E/DX2                !
 ! A105  A(27,39,40)           119.8601         estimate D2E/DX2                !
 ! A106  A(27,39,65)           120.511          estimate D2E/DX2                !
 ! A107  A(40,39,65)           119.6277         estimate D2E/DX2                !
 ! A108  A(39,40,41)           120.0386         estimate D2E/DX2                !
 ! A109  A(39,40,66)           119.706          estimate D2E/DX2                !
 ! A110  A(41,40,66)           120.2554         estimate D2E/DX2                !
 ! A111  A(40,41,42)           120.2562         estimate D2E/DX2                !
 ! A112  A(40,41,67)           119.8778         estimate D2E/DX2                !
 ! A113  A(42,41,67)           119.8658         estimate D2E/DX2                !
 ! A114  A(41,42,43)           120.0544         estimate D2E/DX2                !
 ! A115  A(41,42,68)           120.2252         estimate D2E/DX2                !
 ! A116  A(43,42,68)           119.7204         estimate D2E/DX2                !
 ! A117  A(27,43,42)           119.8591         estimate D2E/DX2                !
 ! A118  A(27,43,69)           120.3983         estimate D2E/DX2                !
 ! A119  A(42,43,69)           119.742          estimate D2E/DX2                !
 ! A120  A(11,49,18)           164.7102         estimate D2E/DX2                !
 ! D1    D(6,1,2,3)             -0.4783         estimate D2E/DX2                !
 ! D2    D(6,1,2,45)           179.4516         estimate D2E/DX2                !
 ! D3    D(44,1,2,3)          -179.6771         estimate D2E/DX2                !
 ! D4    D(44,1,2,45)            0.2528         estimate D2E/DX2                !
 ! D5    D(2,1,6,5)              1.2963         estimate D2E/DX2                !
 ! D6    D(2,1,6,7)            179.6507         estimate D2E/DX2                !
 ! D7    D(44,1,6,5)          -179.4998         estimate D2E/DX2                !
 ! D8    D(44,1,6,7)            -1.1455         estimate D2E/DX2                !
 ! D9    D(1,2,3,4)             -0.5886         estimate D2E/DX2                !
 ! D10   D(1,2,3,46)           179.9329         estimate D2E/DX2                !
 ! D11   D(45,2,3,4)           179.4819         estimate D2E/DX2                !
 ! D12   D(45,2,3,46)            0.0034         estimate D2E/DX2                !
 ! D13   D(2,3,4,5)              0.7951         estimate D2E/DX2                !
 ! D14   D(2,3,4,47)          -179.2502         estimate D2E/DX2                !
 ! D15   D(46,3,4,5)          -179.7224         estimate D2E/DX2                !
 ! D16   D(46,3,4,47)            0.2324         estimate D2E/DX2                !
 ! D17   D(3,4,5,6)              0.0562         estimate D2E/DX2                !
 ! D18   D(3,4,5,12)           178.8482         estimate D2E/DX2                !
 ! D19   D(47,4,5,6)          -179.8999         estimate D2E/DX2                !
 ! D20   D(47,4,5,12)           -1.1079         estimate D2E/DX2                !
 ! D21   D(4,5,6,1)             -1.0878         estimate D2E/DX2                !
 ! D22   D(4,5,6,7)           -179.4022         estimate D2E/DX2                !
 ! D23   D(12,5,6,1)          -179.7964         estimate D2E/DX2                !
 ! D24   D(12,5,6,7)             1.8891         estimate D2E/DX2                !
 ! D25   D(4,5,12,10)          154.4453         estimate D2E/DX2                !
 ! D26   D(6,5,12,10)          -26.7771         estimate D2E/DX2                !
 ! D27   D(1,6,7,11)           173.9354         estimate D2E/DX2                !
 ! D28   D(1,6,7,22)            53.0832         estimate D2E/DX2                !
 ! D29   D(1,6,7,48)           -63.9433         estimate D2E/DX2                !
 ! D30   D(5,6,7,11)            -7.7776         estimate D2E/DX2                !
 ! D31   D(5,6,7,22)          -128.6299         estimate D2E/DX2                !
 ! D32   D(5,6,7,48)           114.3436         estimate D2E/DX2                !
 ! D33   D(6,7,11,10)           38.3427         estimate D2E/DX2                !
 ! D34   D(6,7,11,49)          -93.1283         estimate D2E/DX2                !
 ! D35   D(22,7,11,10)         161.8925         estimate D2E/DX2                !
 ! D36   D(22,7,11,49)          30.4215         estimate D2E/DX2                !
 ! D37   D(48,7,11,10)         -84.2081         estimate D2E/DX2                !
 ! D38   D(48,7,11,49)         144.3209         estimate D2E/DX2                !
 ! D39   D(6,7,22,23)         -139.8912         estimate D2E/DX2                !
 ! D40   D(11,7,22,23)          94.3813         estimate D2E/DX2                !
 ! D41   D(48,7,22,23)         -21.0371         estimate D2E/DX2                !
 ! D42   D(8,10,11,7)         -167.8516         estimate D2E/DX2                !
 ! D43   D(8,10,11,49)         -36.7807         estimate D2E/DX2                !
 ! D44   D(9,10,11,7)           56.527          estimate D2E/DX2                !
 ! D45   D(9,10,11,49)        -172.4021         estimate D2E/DX2                !
 ! D46   D(12,10,11,7)         -57.1557         estimate D2E/DX2                !
 ! D47   D(12,10,11,49)         73.9152         estimate D2E/DX2                !
 ! D48   D(8,10,12,5)          165.3923         estimate D2E/DX2                !
 ! D49   D(9,10,12,5)          -63.8627         estimate D2E/DX2                !
 ! D50   D(11,10,12,5)          51.1227         estimate D2E/DX2                !
 ! D51   D(7,11,49,18)         -39.7127         estimate D2E/DX2                !
 ! D52   D(10,11,49,18)       -171.5638         estimate D2E/DX2                !
 ! D53   D(19,13,14,15)          0.4397         estimate D2E/DX2                !
 ! D54   D(19,13,14,51)       -179.5619         estimate D2E/DX2                !
 ! D55   D(50,13,14,15)        179.8252         estimate D2E/DX2                !
 ! D56   D(50,13,14,51)         -0.1764         estimate D2E/DX2                !
 ! D57   D(14,13,19,17)         -0.0975         estimate D2E/DX2                !
 ! D58   D(14,13,19,20)        177.1423         estimate D2E/DX2                !
 ! D59   D(50,13,19,17)       -179.4955         estimate D2E/DX2                !
 ! D60   D(50,13,19,20)         -2.2557         estimate D2E/DX2                !
 ! D61   D(13,14,15,16)         -0.4087         estimate D2E/DX2                !
 ! D62   D(13,14,15,52)        179.7336         estimate D2E/DX2                !
 ! D63   D(51,14,15,16)        179.5929         estimate D2E/DX2                !
 ! D64   D(51,14,15,52)         -0.2648         estimate D2E/DX2                !
 ! D65   D(14,15,16,17)          0.0367         estimate D2E/DX2                !
 ! D66   D(14,15,16,53)       -179.759          estimate D2E/DX2                !
 ! D67   D(52,15,16,17)        179.8944         estimate D2E/DX2                !
 ! D68   D(52,15,16,53)          0.0987         estimate D2E/DX2                !
 ! D69   D(15,16,17,19)          0.3068         estimate D2E/DX2                !
 ! D70   D(15,16,17,54)       -179.0236         estimate D2E/DX2                !
 ! D71   D(53,16,17,19)       -179.8973         estimate D2E/DX2                !
 ! D72   D(53,16,17,54)          0.7723         estimate D2E/DX2                !
 ! D73   D(16,17,19,13)         -0.2762         estimate D2E/DX2                !
 ! D74   D(16,17,19,20)       -177.5169         estimate D2E/DX2                !
 ! D75   D(54,17,19,13)        179.0694         estimate D2E/DX2                !
 ! D76   D(54,17,19,20)          1.8287         estimate D2E/DX2                !
 ! D77   D(49,18,20,19)       -176.9335         estimate D2E/DX2                !
 ! D78   D(49,18,20,21)         -0.0922         estimate D2E/DX2                !
 ! D79   D(20,18,49,11)         64.9062         estimate D2E/DX2                !
 ! D80   D(13,19,20,18)          3.9342         estimate D2E/DX2                !
 ! D81   D(13,19,20,21)       -173.1288         estimate D2E/DX2                !
 ! D82   D(17,19,20,18)       -178.8468         estimate D2E/DX2                !
 ! D83   D(17,19,20,21)          4.0901         estimate D2E/DX2                !
 ! D84   D(7,22,23,25)        -168.0597         estimate D2E/DX2                !
 ! D85   D(22,23,25,28)        156.521          estimate D2E/DX2                !
 ! D86   D(29,24,28,25)        167.7171         estimate D2E/DX2                !
 ! D87   D(29,24,28,26)        -79.0962         estimate D2E/DX2                !
 ! D88   D(29,24,28,27)         40.8086         estimate D2E/DX2                !
 ! D89   D(33,24,28,25)        -16.156          estimate D2E/DX2                !
 ! D90   D(33,24,28,26)         97.0308         estimate D2E/DX2                !
 ! D91   D(33,24,28,27)       -143.0645         estimate D2E/DX2                !
 ! D92   D(28,24,29,30)        176.6048         estimate D2E/DX2                !
 ! D93   D(28,24,29,55)         -3.9167         estimate D2E/DX2                !
 ! D94   D(33,24,29,30)          0.5382         estimate D2E/DX2                !
 ! D95   D(33,24,29,55)       -179.9833         estimate D2E/DX2                !
 ! D96   D(28,24,33,32)       -176.994          estimate D2E/DX2                !
 ! D97   D(28,24,33,59)          3.2156         estimate D2E/DX2                !
 ! D98   D(29,24,33,32)         -0.8438         estimate D2E/DX2                !
 ! D99   D(29,24,33,59)        179.3657         estimate D2E/DX2                !
 ! D100  D(23,25,28,24)        -58.0905         estimate D2E/DX2                !
 ! D101  D(23,25,28,26)       -175.1002         estimate D2E/DX2                !
 ! D102  D(23,25,28,27)         65.2824         estimate D2E/DX2                !
 ! D103  D(34,26,28,24)         76.6518         estimate D2E/DX2                !
 ! D104  D(34,26,28,25)       -164.7689         estimate D2E/DX2                !
 ! D105  D(34,26,28,27)        -42.1021         estimate D2E/DX2                !
 ! D106  D(38,26,28,24)        -98.6291         estimate D2E/DX2                !
 ! D107  D(38,26,28,25)         19.9502         estimate D2E/DX2                !
 ! D108  D(38,26,28,27)        142.617          estimate D2E/DX2                !
 ! D109  D(28,26,34,35)       -176.1492         estimate D2E/DX2                !
 ! D110  D(28,26,34,60)          4.5144         estimate D2E/DX2                !
 ! D111  D(38,26,34,35)         -0.9075         estimate D2E/DX2                !
 ! D112  D(38,26,34,60)        179.756          estimate D2E/DX2                !
 ! D113  D(28,26,38,37)        176.2153         estimate D2E/DX2                !
 ! D114  D(28,26,38,64)         -3.8931         estimate D2E/DX2                !
 ! D115  D(34,26,38,37)          0.9665         estimate D2E/DX2                !
 ! D116  D(34,26,38,64)       -179.1419         estimate D2E/DX2                !
 ! D117  D(39,27,28,24)         35.0455         estimate D2E/DX2                !
 ! D118  D(39,27,28,25)        -90.0263         estimate D2E/DX2                !
 ! D119  D(39,27,28,26)        154.3901         estimate D2E/DX2                !
 ! D120  D(43,27,28,24)       -152.2209         estimate D2E/DX2                !
 ! D121  D(43,27,28,25)         82.7073         estimate D2E/DX2                !
 ! D122  D(43,27,28,26)        -32.8763         estimate D2E/DX2                !
 ! D123  D(28,27,39,40)        173.7773         estimate D2E/DX2                !
 ! D124  D(28,27,39,65)         -6.6105         estimate D2E/DX2                !
 ! D125  D(43,27,39,40)          1.0501         estimate D2E/DX2                !
 ! D126  D(43,27,39,65)       -179.3377         estimate D2E/DX2                !
 ! D127  D(28,27,43,42)       -173.9956         estimate D2E/DX2                !
 ! D128  D(28,27,43,69)          6.2958         estimate D2E/DX2                !
 ! D129  D(39,27,43,42)         -1.2674         estimate D2E/DX2                !
 ! D130  D(39,27,43,69)        179.024          estimate D2E/DX2                !
 ! D131  D(24,29,30,31)          0.0312         estimate D2E/DX2                !
 ! D132  D(24,29,30,56)        179.8174         estimate D2E/DX2                !
 ! D133  D(55,29,30,31)       -179.4527         estimate D2E/DX2                !
 ! D134  D(55,29,30,56)          0.3336         estimate D2E/DX2                !
 ! D135  D(29,30,31,32)         -0.2912         estimate D2E/DX2                !
 ! D136  D(29,30,31,57)        179.7086         estimate D2E/DX2                !
 ! D137  D(56,30,31,32)        179.9237         estimate D2E/DX2                !
 ! D138  D(56,30,31,57)         -0.0766         estimate D2E/DX2                !
 ! D139  D(30,31,32,33)         -0.019          estimate D2E/DX2                !
 ! D140  D(30,31,32,58)        179.9307         estimate D2E/DX2                !
 ! D141  D(57,31,32,33)        179.9812         estimate D2E/DX2                !
 ! D142  D(57,31,32,58)         -0.0691         estimate D2E/DX2                !
 ! D143  D(31,32,33,24)          0.5835         estimate D2E/DX2                !
 ! D144  D(31,32,33,59)       -179.6207         estimate D2E/DX2                !
 ! D145  D(58,32,33,24)       -179.3667         estimate D2E/DX2                !
 ! D146  D(58,32,33,59)          0.429          estimate D2E/DX2                !
 ! D147  D(26,34,35,36)          0.3397         estimate D2E/DX2                !
 ! D148  D(26,34,35,61)       -179.5893         estimate D2E/DX2                !
 ! D149  D(60,34,35,36)        179.6831         estimate D2E/DX2                !
 ! D150  D(60,34,35,61)         -0.2458         estimate D2E/DX2                !
 ! D151  D(34,35,36,37)          0.1603         estimate D2E/DX2                !
 ! D152  D(34,35,36,62)       -179.9873         estimate D2E/DX2                !
 ! D153  D(61,35,36,37)       -179.9111         estimate D2E/DX2                !
 ! D154  D(61,35,36,62)         -0.0587         estimate D2E/DX2                !
 ! D155  D(35,36,37,38)         -0.098          estimate D2E/DX2                !
 ! D156  D(35,36,37,63)        179.6346         estimate D2E/DX2                !
 ! D157  D(62,36,37,38)       -179.9502         estimate D2E/DX2                !
 ! D158  D(62,36,37,63)         -0.2176         estimate D2E/DX2                !
 ! D159  D(36,37,38,26)         -0.4624         estimate D2E/DX2                !
 ! D160  D(36,37,38,64)        179.646          estimate D2E/DX2                !
 ! D161  D(63,37,38,26)        179.8018         estimate D2E/DX2                !
 ! D162  D(63,37,38,64)         -0.0899         estimate D2E/DX2                !
 ! D163  D(27,39,40,41)         -0.2255         estimate D2E/DX2                !
 ! D164  D(27,39,40,66)        179.6851         estimate D2E/DX2                !
 ! D165  D(65,39,40,41)       -179.8412         estimate D2E/DX2                !
 ! D166  D(65,39,40,66)          0.0694         estimate D2E/DX2                !
 ! D167  D(39,40,41,42)         -0.3849         estimate D2E/DX2                !
 ! D168  D(39,40,41,67)        179.7694         estimate D2E/DX2                !
 ! D169  D(66,40,41,42)        179.705          estimate D2E/DX2                !
 ! D170  D(66,40,41,67)         -0.1406         estimate D2E/DX2                !
 ! D171  D(40,41,42,43)          0.1665         estimate D2E/DX2                !
 ! D172  D(40,41,42,68)       -179.765          estimate D2E/DX2                !
 ! D173  D(67,41,42,43)       -179.9878         estimate D2E/DX2                !
 ! D174  D(67,41,42,68)          0.0806         estimate D2E/DX2                !
 ! D175  D(41,42,43,27)          0.6599         estimate D2E/DX2                !
 ! D176  D(41,42,43,69)       -179.6296         estimate D2E/DX2                !
 ! D177  D(68,42,43,27)       -179.4082         estimate D2E/DX2                !
 ! D178  D(68,42,43,69)          0.3023         estimate D2E/DX2                !
 --------------------------------------------------------------------------------
 Stoichiometry    C33H26N3O5PS
 Framework group  C1[X(C33H26N3O5PS)]
 Deg. of freedom   201
 Full point group                 C1      NOp   1
 Largest Abelian subgroup         C1      NOp   1
 Largest concise Abelian subgroup C1      NOp   1
                         Standard orientation:                         
 ---------------------------------------------------------------------
 Center     Atomic      Atomic             Coordinates (Angstroms)
 Number     Number       Type             X           Y           Z
 ---------------------------------------------------------------------
      1          6           0       -3.468354   -1.217511   -2.462209
      2          6           0       -4.387037   -0.958432   -3.470293
      3          6           0       -5.576216   -0.296768   -3.168715
      4          6           0       -5.845000    0.090136   -1.862817
      5          6           0       -4.912533   -0.173395   -0.867588
      6          6           0       -3.709087   -0.817684   -1.148013
      7          6           0       -2.683449   -1.124709   -0.063277
      8          8           0       -4.765475    0.294707    2.800618
      9          8           0       -5.047156   -1.906727    1.599801
     10         16           0       -4.555773   -0.546530    1.650960
     11          7           0       -2.979224   -0.534179    1.252185
     12          8           0       -5.247955    0.269429    0.411005
     13          6           0        0.466700    3.705630    0.914960
     14          6           0        1.417671    4.681008    0.629927
     15          6           0        1.621427    5.091924   -0.686260
     16          6           0        0.877456    4.518473   -1.717277
     17          6           0       -0.067385    3.537829   -1.430668
     18          8           0       -1.438397    1.705955    1.397828
     19          6           0       -0.280228    3.127937   -0.113129
     20          6           0       -1.265449    2.024701    0.189742
     21          8           0       -1.817522    1.446004   -0.790554
     22          6           0       -1.344942   -0.643219   -0.441247
     23          7           0       -0.178172   -0.693324   -0.531669
     24          6           0        2.165931   -0.845341    1.680757
     25          7           0        0.955791   -0.093866   -0.793013
     26          6           0        3.599465    0.390192   -0.568329
     27          6           0        2.697302   -2.417210   -0.730572
     28         15           0        2.297898   -0.766513   -0.120155
     29          6           0        3.069574   -1.604002    2.434863
     30          6           0        2.990351   -1.591810    3.822101
     31          6           0        2.013302   -0.826608    4.457971
     32          6           0        1.118777   -0.068453    3.707939
     33          6           0        1.193225   -0.068268    2.318168
     34          6           0        4.940311    0.007138   -0.450701
     35          6           0        5.945602    0.928096   -0.720585
     36          6           0        5.615065    2.228134   -1.099436
     37          6           0        4.280337    2.610231   -1.205779
     38          6           0        3.265755    1.697282   -0.936830
     39          6           0        2.167561   -3.544120   -0.090116
     40          6           0        2.367725   -4.808088   -0.634652
     41          6           0        3.089621   -4.951494   -1.817000
     42          6           0        3.607413   -3.831016   -2.463857
     43          6           0        3.407850   -2.564019   -1.928507
     44          1           0       -2.538466   -1.728796   -2.697762
     45          1           0       -4.175512   -1.270496   -4.487338
     46          1           0       -6.300728   -0.088188   -3.948909
     47          1           0       -6.766622    0.595516   -1.596128
     48          1           0       -2.596275   -2.212532    0.055420
     49          1           0       -2.517195    0.406189    1.389731
     50          1           0        0.298406    3.373188    1.933973
     51          1           0        2.000414    5.121339    1.433638
     52          1           0        2.360544    5.856377   -0.909096
     53          1           0        1.037183    4.834215   -2.744147
     54          1           0       -0.643821    3.069777   -2.221288
     55          1           0        3.827488   -2.209334    1.945623
     56          1           0        3.688594   -2.181955    4.406587
     57          1           0        1.951192   -0.823066    5.541724
     58          1           0        0.356349    0.527428    4.198983
     59          1           0        0.488358    0.536133    1.752796
     60          1           0        5.203838   -1.006187   -0.160850
     61          1           0        6.985503    0.630293   -0.636187
     62          1           0        6.402181    2.945511   -1.309883
     63          1           0        4.019375    3.623004   -1.494688
     64          1           0        2.225104    1.995859   -1.013909
     65          1           0        1.606018   -3.440287    0.833198
     66          1           0        1.960518   -5.680030   -0.133586
     67          1           0        3.247467   -5.939528   -2.237684
     68          1           0        4.166465   -3.942978   -3.386941
     69          1           0        3.808328   -1.694044   -2.439857
 ---------------------------------------------------------------------
 Rotational constants (GHZ):           0.0997323           0.0563707           0.0500013
 Electric field and nuclear coordinate derivatives read from checkpoint file.
 Rotating derivatives to standard orientation.
 Full mass-weighted force constant matrix:
 Low frequencies --- -287.7854   -4.1933   -0.0225   -0.0047    0.0215    2.8988
 Low frequencies ---    5.4226   12.5619   17.7111
 ******    1 imaginary frequencies (negative Signs) ****** 
 Diagonal vibrational polarizability:
      303.6170231     421.6716724     120.1314145
 Harmonic frequencies (cm**-1), IR intensities (KM/Mole), Raman scattering
 activities (A**4/AMU), depolarization ratios for plane and unpolarized
 incident light, reduced masses (AMU), force constants (mDyne/A),
 and normal coordinates:
                      1                      2                      3
                      A                      A                      A
 Frequencies --   -287.7852                12.1638                17.5960
 Red. masses --     10.1000                 6.3398                 7.4329
 Frc consts  --      0.4928                 0.0006                 0.0014
 IR Inten    --    441.8035                 0.5840                 2.1487
  Atom  AN      X      Y      Z        X      Y      Z        X      Y      Z
     1   6    -0.01  -0.00   0.01    -0.04  -0.02   0.04    -0.05   0.19  -0.07
     2   6    -0.01  -0.00   0.00    -0.06  -0.04   0.05    -0.09   0.25  -0.03
     3   6    -0.01  -0.00  -0.00    -0.06  -0.04   0.07    -0.10   0.18   0.06
     4   6    -0.02  -0.00  -0.00    -0.03  -0.02   0.07    -0.08   0.06   0.10
     5   6    -0.02  -0.00  -0.00    -0.01  -0.01   0.05    -0.04   0.01   0.05
     6   6    -0.02  -0.00   0.01    -0.01  -0.00   0.04    -0.03   0.07  -0.03
     7   6     0.07   0.14  -0.06     0.01   0.01   0.02     0.01   0.01  -0.08
     8   8    -0.00  -0.01  -0.00     0.07   0.05   0.04     0.08  -0.21   0.08
     9   8    -0.02  -0.01  -0.00     0.06   0.03   0.09     0.13  -0.16  -0.03
    10  16    -0.02  -0.01  -0.00     0.05   0.03   0.05     0.07  -0.14   0.02
    11   7    -0.02  -0.03   0.01     0.04   0.04   0.01     0.05  -0.04  -0.05
    12   8    -0.01   0.00   0.00     0.02   0.01   0.06    -0.02  -0.10   0.10
    13   6    -0.03  -0.00  -0.01    -0.01   0.07  -0.11     0.01  -0.01  -0.03
    14   6    -0.03  -0.01  -0.01    -0.02   0.07  -0.14     0.02  -0.02  -0.01
    15   6    -0.02  -0.01  -0.01    -0.02   0.03  -0.15     0.04  -0.02  -0.01
    16   6    -0.02  -0.01  -0.01    -0.01  -0.02  -0.14     0.04  -0.01  -0.02
    17   6    -0.02  -0.02  -0.02     0.00  -0.02  -0.11     0.03   0.00  -0.03
    18   8     0.01   0.04   0.02     0.03   0.05  -0.05    -0.02   0.01  -0.05
    19   6    -0.03  -0.01  -0.02     0.00   0.02  -0.09     0.01   0.00  -0.04
    20   6     0.10  -0.08   0.06     0.01   0.02  -0.06    -0.00   0.01  -0.05
    21   8     0.24  -0.37   0.04     0.01  -0.00  -0.05     0.01   0.01  -0.06
    22   6    -0.08   0.65  -0.09     0.01   0.00  -0.01     0.00   0.01  -0.09
    23   7    -0.00  -0.18   0.05     0.01   0.00  -0.02     0.01   0.01  -0.07
    24   6     0.01  -0.00  -0.00    -0.05  -0.05  -0.00    -0.04   0.04  -0.01
    25   7    -0.04   0.07   0.06     0.01  -0.00  -0.02     0.01   0.00  -0.04
    26   6    -0.00  -0.00   0.00     0.01   0.01   0.06     0.01  -0.01  -0.00
    27   6    -0.00   0.00  -0.00     0.03   0.01  -0.03    -0.00  -0.01   0.03
    28  15    -0.04   0.01  -0.02     0.00  -0.01   0.00    -0.00   0.01  -0.01
    29   6     0.01  -0.00   0.00    -0.09  -0.10   0.00    -0.05   0.06   0.02
    30   6     0.00  -0.00   0.00    -0.14  -0.14  -0.00    -0.07   0.08   0.02
    31   6     0.00  -0.00   0.00    -0.14  -0.14  -0.01    -0.08   0.09  -0.01
    32   6     0.01  -0.00   0.00    -0.10  -0.10  -0.01    -0.07   0.08  -0.04
    33   6     0.01  -0.01   0.00    -0.05  -0.05  -0.01    -0.05   0.05  -0.04
    34   6    -0.00   0.00   0.00     0.00   0.02   0.12     0.01  -0.01   0.03
    35   6    -0.00  -0.00   0.00     0.01   0.03   0.17     0.02  -0.02   0.03
    36   6     0.00  -0.00  -0.00     0.01   0.03   0.16     0.03  -0.03   0.00
    37   6     0.00   0.00  -0.00     0.02   0.02   0.10     0.03  -0.02  -0.03
    38   6     0.00   0.00  -0.00     0.01   0.01   0.05     0.02  -0.01  -0.03
    39   6    -0.00   0.00  -0.00     0.00  -0.01  -0.08    -0.02   0.01   0.05
    40   6     0.00   0.00  -0.00     0.03   0.01  -0.11    -0.02  -0.00   0.08
    41   6     0.00  -0.00   0.00     0.07   0.04  -0.09     0.01  -0.04   0.10
    42   6     0.00  -0.00   0.00     0.10   0.06  -0.04     0.03  -0.05   0.09
    43   6    -0.00  -0.00   0.00     0.07   0.04  -0.01     0.03  -0.04   0.06
    44   1    -0.00   0.01   0.02    -0.04  -0.02   0.02    -0.04   0.24  -0.14
    45   1    -0.01  -0.00   0.00    -0.08  -0.05   0.05    -0.11   0.34  -0.06
    46   1    -0.00   0.00  -0.00    -0.08  -0.05   0.08    -0.13   0.23   0.10
    47   1    -0.02  -0.00  -0.01    -0.03  -0.02   0.08    -0.09   0.01   0.17
    48   1     0.41   0.16  -0.16     0.01   0.01   0.03    -0.01   0.01  -0.13
    49   1    -0.05  -0.08   0.14     0.04   0.04  -0.01     0.01  -0.02  -0.05
    50   1    -0.03  -0.00  -0.01    -0.01   0.10  -0.10    -0.01  -0.01  -0.03
    51   1    -0.03  -0.02  -0.00    -0.03   0.10  -0.15     0.02  -0.03  -0.01
    52   1    -0.02  -0.02  -0.01    -0.03   0.03  -0.17     0.05  -0.03  -0.00
    53   1    -0.02  -0.01  -0.01    -0.00  -0.05  -0.15     0.06  -0.00  -0.02
    54   1     0.02  -0.02  -0.04     0.01  -0.05  -0.09     0.03   0.01  -0.04
    55   1     0.01  -0.00   0.00    -0.09  -0.10   0.01    -0.04   0.05   0.05
    56   1     0.00  -0.00   0.00    -0.17  -0.18   0.00    -0.08   0.10   0.04
    57   1     0.00  -0.01   0.00    -0.18  -0.18  -0.01    -0.10   0.11  -0.01
    58   1     0.00  -0.00   0.00    -0.10  -0.09  -0.02    -0.08   0.08  -0.07
    59   1     0.03  -0.02  -0.01    -0.02  -0.01  -0.01    -0.04   0.03  -0.06
    60   1    -0.01   0.00   0.00    -0.00   0.02   0.12    -0.00  -0.01   0.05
    61   1    -0.00  -0.00   0.00     0.01   0.04   0.21     0.01  -0.02   0.05
    62   1     0.01  -0.00  -0.00     0.02   0.04   0.20     0.04  -0.03   0.01
    63   1     0.01   0.00  -0.01     0.02   0.02   0.10     0.04  -0.02  -0.05
    64   1     0.00  -0.01  -0.00     0.01  -0.00   0.01     0.03  -0.01  -0.05
    65   1    -0.01   0.00  -0.01    -0.03  -0.04  -0.10    -0.05   0.04   0.03
    66   1    -0.00   0.00  -0.00     0.01  -0.01  -0.15    -0.03   0.01   0.09
    67   1     0.00  -0.00   0.00     0.09   0.05  -0.11     0.02  -0.05   0.13
    68   1     0.00  -0.00   0.00     0.13   0.09  -0.02     0.06  -0.08   0.11
    69   1    -0.00  -0.00   0.00     0.09   0.06   0.03     0.05  -0.05   0.05
                      4                      5                      6
                      A                      A                      A
 Frequencies --     25.5014                32.6959                36.4633
 Red. masses --      6.2228                 4.5792                 4.7039
 Frc consts  --      0.0024                 0.0029                 0.0037
 IR Inten    --      0.0707                 0.1919                 0.1410
  Atom  AN      X      Y      Z        X      Y      Z        X      Y      Z
     1   6    -0.05   0.04  -0.00    -0.00   0.04  -0.02    -0.04  -0.02  -0.01
     2   6    -0.04   0.10  -0.00     0.01   0.07  -0.02    -0.07  -0.07   0.01
     3   6     0.00   0.17   0.00     0.01   0.08  -0.01    -0.10  -0.12   0.02
     4   6     0.02   0.17   0.01     0.02   0.06  -0.00    -0.08  -0.10   0.01
     5   6     0.00   0.10   0.01     0.01   0.02  -0.00    -0.05  -0.04   0.00
     6   6    -0.03   0.04   0.00     0.00   0.01  -0.01    -0.03   0.00  -0.01
     7   6    -0.05  -0.02   0.00    -0.00  -0.02  -0.02    -0.01   0.04  -0.02
     8   8     0.01   0.04   0.01     0.02  -0.03   0.00    -0.01   0.03  -0.01
     9   8    -0.10   0.07  -0.02     0.01  -0.01  -0.02     0.02   0.00   0.04
    10  16    -0.03   0.05   0.00     0.01  -0.01  -0.01    -0.01   0.02   0.00
    11   7    -0.03  -0.02   0.01     0.01  -0.02  -0.01    -0.01   0.05  -0.02
    12   8     0.02   0.11   0.01     0.01   0.00   0.00    -0.05  -0.02  -0.00
    13   6    -0.01  -0.03  -0.00    -0.09   0.09  -0.05     0.08  -0.06   0.02
    14   6    -0.03  -0.01  -0.01    -0.12   0.11  -0.06     0.11  -0.09   0.05
    15   6    -0.05  -0.00  -0.00    -0.08   0.05  -0.08     0.11  -0.05   0.06
    16   6    -0.05  -0.01  -0.00    -0.02  -0.03  -0.08     0.08   0.02   0.05
    17   6    -0.03  -0.02   0.00     0.00  -0.04  -0.06     0.04   0.05   0.02
    18   8     0.02  -0.06   0.01     0.01  -0.01  -0.04    -0.03   0.04  -0.02
    19   6    -0.01  -0.04   0.00    -0.03   0.01  -0.05     0.04   0.01   0.01
    20   6     0.01  -0.05   0.01    -0.01  -0.01  -0.04     0.00   0.03  -0.02
    21   8     0.00  -0.05   0.01    -0.00  -0.02  -0.03     0.01   0.04  -0.03
    22   6    -0.03  -0.06   0.01     0.00  -0.03  -0.01    -0.02   0.04  -0.03
    23   7    -0.03  -0.08   0.00     0.01  -0.02   0.02    -0.02   0.03  -0.02
    24   6    -0.00  -0.04  -0.00     0.03  -0.02   0.04    -0.04   0.01  -0.00
    25   7    -0.03  -0.09  -0.01     0.01  -0.01   0.04    -0.01   0.01  -0.02
    26   6    -0.05  -0.01  -0.02     0.01  -0.02   0.04    -0.00  -0.01   0.01
    27   6     0.07  -0.04   0.01    -0.01  -0.02   0.02     0.00   0.01  -0.01
    28  15    -0.01  -0.05  -0.01     0.01  -0.02   0.04    -0.02   0.01  -0.00
    29   6     0.02  -0.01  -0.00     0.08   0.03   0.02     0.00   0.07   0.01
    30   6     0.03   0.00   0.00     0.11   0.04   0.03    -0.02   0.08   0.01
    31   6     0.01  -0.02  -0.00     0.09   0.00   0.04    -0.07   0.03  -0.00
    32   6    -0.01  -0.04  -0.01     0.04  -0.04   0.05    -0.10  -0.03  -0.02
    33   6    -0.02  -0.06  -0.01     0.01  -0.05   0.05    -0.08  -0.03  -0.02
    34   6    -0.04   0.03   0.00     0.01  -0.06  -0.07    -0.01  -0.05  -0.03
    35   6    -0.06   0.05  -0.01     0.01  -0.05  -0.05     0.01  -0.07  -0.03
    36   6    -0.10   0.03  -0.05     0.01  -0.01   0.08     0.03  -0.05   0.01
    37   6    -0.11  -0.01  -0.07     0.01   0.02   0.18     0.04  -0.01   0.04
    38   6    -0.08  -0.03  -0.05     0.01   0.01   0.16     0.02   0.01   0.04
    39   6     0.16  -0.07   0.03     0.08  -0.03   0.07     0.16  -0.02   0.06
    40   6     0.26  -0.06   0.05     0.06  -0.03   0.04     0.21  -0.01   0.05
    41   6     0.27  -0.03   0.06    -0.06  -0.00  -0.04     0.10   0.03  -0.02
    42   6     0.17  -0.00   0.03    -0.16   0.02  -0.09    -0.06   0.07  -0.09
    43   6     0.08  -0.01   0.01    -0.13   0.01  -0.06    -0.11   0.06  -0.08
    44   1    -0.08  -0.01  -0.00    -0.01   0.03  -0.03    -0.03   0.01  -0.01
    45   1    -0.05   0.10  -0.00     0.01   0.09  -0.03    -0.08  -0.09   0.01
    46   1     0.02   0.22   0.00     0.02   0.11  -0.01    -0.12  -0.16   0.03
    47   1     0.05   0.21   0.01     0.02   0.06   0.01    -0.10  -0.13   0.02
    48   1    -0.09  -0.02  -0.02    -0.02  -0.02  -0.02     0.00   0.04  -0.01
    49   1     0.01  -0.04   0.01     0.01  -0.02  -0.02    -0.02   0.05  -0.03
    50   1     0.01  -0.04  -0.00    -0.12   0.13  -0.04     0.07  -0.09   0.01
    51   1    -0.02  -0.01  -0.01    -0.17   0.17  -0.06     0.14  -0.14   0.06
    52   1    -0.07   0.01  -0.01    -0.10   0.07  -0.08     0.14  -0.06   0.08
    53   1    -0.07   0.01   0.00     0.01  -0.07  -0.09     0.08   0.05   0.06
    54   1    -0.04  -0.03   0.01     0.05  -0.10  -0.06     0.02   0.10   0.01
    55   1     0.03   0.00   0.00     0.10   0.06   0.01     0.04   0.11   0.03
    56   1     0.05   0.03   0.00     0.15   0.07   0.01     0.01   0.12   0.02
    57   1     0.02  -0.00  -0.00     0.11   0.01   0.04    -0.08   0.03  -0.00
    58   1    -0.02  -0.06  -0.01     0.03  -0.07   0.07    -0.14  -0.06  -0.03
    59   1    -0.03  -0.08  -0.01    -0.02  -0.08   0.06    -0.10  -0.06  -0.02
    60   1    -0.01   0.04   0.03     0.00  -0.08  -0.17    -0.03  -0.06  -0.07
    61   1    -0.05   0.08   0.01     0.01  -0.08  -0.14     0.00  -0.10  -0.06
    62   1    -0.12   0.05  -0.06     0.01  -0.01   0.09     0.05  -0.07   0.00
    63   1    -0.13  -0.03  -0.10     0.01   0.05   0.28     0.06  -0.00   0.07
    64   1    -0.09  -0.07  -0.07     0.01   0.04   0.24     0.03   0.04   0.07
    65   1     0.15  -0.10   0.03     0.17  -0.05   0.12     0.24  -0.06   0.11
    66   1     0.33  -0.09   0.07     0.14  -0.04   0.08     0.34  -0.04   0.10
    67   1     0.35  -0.03   0.08    -0.08   0.01  -0.06     0.14   0.04  -0.03
    68   1     0.18   0.03   0.03    -0.25   0.04  -0.14    -0.15   0.11  -0.15
    69   1     0.01   0.02  -0.01    -0.21   0.02  -0.09    -0.22   0.09  -0.12
                      7                      8                      9
                      A                      A                      A
 Frequencies --     38.2839                42.6176                45.0729
 Red. masses --      5.1516                 5.3329                 6.0818
 Frc consts  --      0.0044                 0.0057                 0.0073
 IR Inten    --      0.0577                 0.2173                 0.9116
  Atom  AN      X      Y      Z        X      Y      Z        X      Y      Z
     1   6     0.02   0.05  -0.01    -0.08  -0.05  -0.01    -0.12  -0.10  -0.04
     2   6     0.04   0.07  -0.02    -0.10  -0.05   0.00    -0.17  -0.11  -0.00
     3   6     0.03   0.06  -0.02    -0.07  -0.01   0.02    -0.12  -0.04   0.03
     4   6     0.01   0.03  -0.02    -0.03   0.03   0.02    -0.03   0.03   0.03
     5   6    -0.01   0.00  -0.01    -0.01   0.02  -0.00     0.02   0.03  -0.01
     6   6    -0.00   0.01  -0.00    -0.04  -0.02  -0.01    -0.03  -0.03  -0.05
     7   6    -0.02  -0.00   0.00    -0.02  -0.03  -0.03     0.02  -0.04  -0.09
     8   8    -0.05  -0.04  -0.00     0.04   0.01  -0.00     0.17   0.03  -0.02
     9   8    -0.01  -0.03  -0.02    -0.05   0.03  -0.02    -0.02   0.06  -0.03
    10  16    -0.03  -0.03  -0.01     0.00   0.01  -0.01     0.08   0.03  -0.03
    11   7    -0.02  -0.01   0.00     0.00  -0.04  -0.02     0.07  -0.07  -0.07
    12   8    -0.03  -0.03  -0.00     0.03   0.05  -0.00     0.11   0.09  -0.01
    13   6     0.15  -0.14  -0.09     0.06  -0.10  -0.01     0.02  -0.06   0.01
    14   6     0.17  -0.17  -0.14     0.06  -0.11  -0.01    -0.00  -0.03   0.05
    15   6     0.05  -0.10  -0.14     0.01  -0.06  -0.00    -0.03   0.06   0.08
    16   6    -0.09  -0.01  -0.09    -0.04  -0.00   0.00    -0.03   0.10   0.05
    17   6    -0.10   0.02  -0.04    -0.04  -0.00   0.00    -0.01   0.07   0.00
    18   8     0.02  -0.01  -0.00     0.02  -0.06  -0.01     0.05  -0.09  -0.07
    19   6     0.02  -0.04  -0.04     0.00  -0.05  -0.00     0.01  -0.01  -0.02
    20   6    -0.00  -0.02  -0.01    -0.00  -0.04  -0.00     0.04  -0.04  -0.06
    21   8    -0.03  -0.01   0.01    -0.02  -0.02  -0.01     0.04  -0.02  -0.08
    22   6    -0.01  -0.01   0.02    -0.02  -0.02  -0.04     0.01  -0.04  -0.12
    23   7    -0.01   0.01   0.06    -0.02  -0.02  -0.04     0.02  -0.02  -0.04
    24   6     0.02   0.01   0.06     0.00   0.00  -0.03     0.02   0.01   0.03
    25   7    -0.02   0.04   0.09    -0.02  -0.02  -0.03     0.01   0.03   0.03
    26   6    -0.01   0.04   0.04    -0.01  -0.01   0.01     0.00   0.04   0.01
    27   6    -0.01   0.05   0.03    -0.01  -0.01  -0.03    -0.01   0.02   0.05
    28  15    -0.00   0.04   0.06    -0.02  -0.02  -0.03     0.01   0.03   0.03
    29   6     0.05   0.02   0.04     0.02   0.02  -0.03     0.07   0.05   0.01
    30   6     0.07  -0.02   0.04     0.09   0.12  -0.03     0.06  -0.01   0.01
    31   6     0.05  -0.08   0.07     0.15   0.19  -0.02    -0.01  -0.12   0.03
    32   6     0.01  -0.09   0.10     0.13   0.17  -0.02    -0.06  -0.15   0.05
    33   6    -0.00  -0.05   0.09     0.06   0.07  -0.03    -0.05  -0.09   0.05
    34   6    -0.01   0.05   0.08    -0.02  -0.01   0.09     0.01   0.05  -0.02
    35   6    -0.01   0.03   0.04    -0.01   0.01   0.20    -0.01   0.05  -0.05
    36   6    -0.01   0.01  -0.05     0.01   0.02   0.23    -0.02   0.05  -0.05
    37   6    -0.01  -0.00  -0.09     0.02   0.02   0.15    -0.03   0.04  -0.01
    38   6    -0.01   0.02  -0.04     0.00  -0.00   0.04    -0.02   0.04   0.02
    39   6     0.00   0.04   0.02    -0.03  -0.01  -0.05    -0.06   0.05   0.05
    40   6    -0.02   0.05  -0.02    -0.03  -0.01  -0.06    -0.10   0.04   0.07
    41   6    -0.05   0.08  -0.04    -0.01  -0.00  -0.05    -0.09  -0.00   0.09
    42   6    -0.06   0.09  -0.03     0.01  -0.00  -0.03    -0.03  -0.03   0.08
    43   6    -0.04   0.08   0.01     0.01  -0.01  -0.02     0.00  -0.02   0.06
    44   1     0.03   0.06  -0.01    -0.10  -0.09  -0.02    -0.16  -0.16  -0.07
    45   1     0.06   0.10  -0.02    -0.13  -0.08   0.01    -0.24  -0.16  -0.00
    46   1     0.05   0.08  -0.03    -0.08  -0.00   0.03    -0.16  -0.05   0.07
    47   1     0.01   0.02  -0.02    -0.01   0.06   0.03     0.01   0.08   0.06
    48   1    -0.03  -0.01   0.00    -0.02  -0.03  -0.05     0.02  -0.05  -0.12
    49   1    -0.03  -0.00   0.00     0.02  -0.06  -0.01     0.11  -0.08  -0.06
    50   1     0.25  -0.18  -0.09     0.09  -0.14  -0.02     0.03  -0.12  -0.01
    51   1     0.28  -0.24  -0.18     0.10  -0.15  -0.02    -0.00  -0.06   0.07
    52   1     0.06  -0.12  -0.17     0.01  -0.06  -0.00    -0.04   0.08   0.11
    53   1    -0.18   0.04  -0.09    -0.08   0.03   0.01    -0.05   0.17   0.07
    54   1    -0.20   0.08  -0.01    -0.08   0.04   0.01    -0.01   0.11  -0.02
    55   1     0.07   0.05   0.01    -0.03  -0.03  -0.03     0.11   0.12  -0.01
    56   1     0.09  -0.02   0.01     0.10   0.13  -0.03     0.09   0.02  -0.01
    57   1     0.06  -0.11   0.07     0.22   0.27  -0.02    -0.02  -0.17   0.03
    58   1    -0.00  -0.13   0.12     0.18   0.23  -0.02    -0.11  -0.23   0.07
    59   1    -0.03  -0.06   0.11     0.04   0.05  -0.03    -0.08  -0.11   0.07
    60   1    -0.01   0.06   0.14    -0.03  -0.02   0.07     0.02   0.05  -0.03
    61   1    -0.01   0.04   0.07    -0.01   0.02   0.27    -0.00   0.06  -0.08
    62   1    -0.01  -0.00  -0.08     0.02   0.04   0.32    -0.03   0.05  -0.07
    63   1    -0.00  -0.02  -0.15     0.03   0.03   0.17    -0.04   0.04  -0.01
    64   1    -0.01   0.01  -0.07     0.00  -0.00  -0.02    -0.02   0.03   0.04
    65   1     0.02   0.02   0.03    -0.05  -0.02  -0.06    -0.07   0.09   0.05
    66   1    -0.01   0.04  -0.03    -0.04  -0.01  -0.07    -0.14   0.06   0.08
    67   1    -0.06   0.09  -0.07    -0.00  -0.00  -0.05    -0.11  -0.02   0.10
    68   1    -0.08   0.11  -0.04     0.03   0.00  -0.02    -0.02  -0.07   0.09
    69   1    -0.05   0.09   0.02     0.02  -0.00  -0.01     0.04  -0.04   0.05
                     10                     11                     12
                      A                      A                      A
 Frequencies --     49.8429                53.3941                65.9715
 Red. masses --      5.8614                 4.5887                 5.4284
 Frc consts  --      0.0086                 0.0077                 0.0139
 IR Inten    --      1.5352                 0.1715                 1.6904
  Atom  AN      X      Y      Z        X      Y      Z        X      Y      Z
     1   6    -0.03   0.09  -0.04     0.04   0.03   0.01     0.06   0.05  -0.01
     2   6    -0.05   0.04  -0.03     0.05   0.02  -0.00     0.07   0.06  -0.02
     3   6    -0.11  -0.07  -0.01     0.03  -0.01  -0.01     0.04   0.00  -0.02
     4   6    -0.13  -0.11  -0.01    -0.00  -0.03  -0.01     0.00  -0.05  -0.02
     5   6    -0.10  -0.05  -0.01    -0.01  -0.01  -0.00    -0.01  -0.05  -0.00
     6   6    -0.05   0.04  -0.03     0.01   0.02   0.01     0.02  -0.00  -0.00
     7   6    -0.05   0.06  -0.03     0.01   0.04   0.02     0.00  -0.00   0.01
     8   8    -0.07   0.03  -0.03    -0.04   0.01  -0.00     0.02   0.07  -0.02
     9   8     0.05  -0.03   0.05     0.02  -0.01   0.01     0.06  -0.01   0.11
    10  16    -0.04   0.01  -0.00    -0.02   0.00   0.00     0.02   0.01   0.02
    11   7    -0.05   0.09  -0.04    -0.01   0.04   0.01     0.01   0.04  -0.01
    12   8    -0.13  -0.09  -0.01    -0.03  -0.02  -0.00    -0.04  -0.08  -0.00
    13   6    -0.02   0.06  -0.01     0.09  -0.04  -0.02     0.10  -0.06  -0.02
    14   6    -0.02   0.07   0.03     0.08  -0.04  -0.06     0.05  -0.00   0.02
    15   6     0.05   0.06   0.04    -0.03   0.02  -0.06    -0.05   0.14   0.05
    16   6     0.11   0.03   0.01    -0.14   0.08  -0.02    -0.10   0.21   0.04
    17   6     0.10   0.03  -0.03    -0.13   0.08   0.01    -0.04   0.15  -0.00
    18   8    -0.00   0.04  -0.07     0.01   0.03   0.04     0.07  -0.03  -0.06
    19   6     0.04   0.04  -0.04    -0.02   0.03   0.01     0.05   0.02  -0.03
    20   6     0.02   0.04  -0.07    -0.02   0.03   0.04     0.08  -0.02  -0.06
    21   8     0.03   0.06  -0.08    -0.04   0.04   0.05     0.11  -0.03  -0.07
    22   6    -0.04   0.01  -0.02     0.00   0.05   0.02     0.02  -0.04   0.01
    23   7    -0.03   0.01   0.02    -0.00   0.04  -0.02     0.01  -0.08   0.02
    24   6     0.04  -0.05   0.02     0.00  -0.00  -0.06    -0.00  -0.04   0.02
    25   7    -0.02  -0.01   0.04     0.00   0.01  -0.06     0.02  -0.08   0.01
    26   6    -0.03  -0.01   0.01     0.01  -0.00  -0.04    -0.02  -0.03   0.01
    27   6    -0.01  -0.01   0.00    -0.01  -0.02  -0.02     0.02  -0.06   0.02
    28  15    -0.02  -0.02   0.02    -0.00   0.00  -0.06     0.02  -0.06   0.02
    29   6     0.09  -0.05  -0.04     0.03   0.01  -0.08    -0.06  -0.06   0.07
    30   6     0.18  -0.06  -0.04     0.04  -0.02  -0.08    -0.08  -0.01   0.06
    31   6     0.21  -0.07   0.03     0.00  -0.07  -0.06    -0.05   0.07   0.02
    32   6     0.15  -0.07   0.08    -0.02  -0.09  -0.04     0.00   0.10  -0.02
    33   6     0.07  -0.06   0.08    -0.02  -0.05  -0.04     0.03   0.04  -0.02
    34   6    -0.02   0.01   0.05     0.01  -0.03  -0.12    -0.01   0.03  -0.01
    35   6    -0.03   0.02   0.06     0.01  -0.02  -0.06    -0.05   0.07  -0.02
    36   6    -0.04   0.01   0.02     0.02   0.03   0.10    -0.10   0.06  -0.00
    37   6    -0.04  -0.01  -0.03     0.02   0.06   0.18    -0.12   0.01   0.02
    38   6    -0.04  -0.02  -0.03     0.01   0.04   0.11    -0.08  -0.04   0.02
    39   6    -0.05  -0.01  -0.02    -0.04   0.01   0.01     0.04  -0.07   0.02
    40   6    -0.01  -0.01  -0.00    -0.01  -0.02   0.09    -0.01  -0.06  -0.03
    41   6     0.06  -0.02   0.04     0.05  -0.08   0.14    -0.07  -0.04  -0.07
    42   6     0.10  -0.02   0.07     0.07  -0.11   0.10    -0.08  -0.03  -0.06
    43   6     0.06  -0.02   0.05     0.04  -0.08   0.02    -0.03  -0.04  -0.01
    44   1     0.01   0.17  -0.05     0.05   0.06   0.02     0.08   0.09  -0.01
    45   1    -0.03   0.08  -0.04     0.07   0.03  -0.00     0.10   0.10  -0.03
    46   1    -0.13  -0.12  -0.01     0.03  -0.03  -0.02     0.05   0.01  -0.03
    47   1    -0.17  -0.19   0.01    -0.02  -0.05  -0.02    -0.02  -0.09  -0.02
    48   1    -0.08   0.06   0.00     0.02   0.04   0.02    -0.02  -0.00   0.04
    49   1    -0.07   0.10  -0.06    -0.02   0.04   0.03     0.02   0.04  -0.04
    50   1    -0.07   0.08  -0.01     0.17  -0.08  -0.02     0.16  -0.16  -0.04
    51   1    -0.07   0.09   0.06     0.16  -0.10  -0.09     0.09  -0.06   0.03
    52   1     0.05   0.06   0.06    -0.04   0.02  -0.09    -0.10   0.19   0.08
    53   1     0.16   0.02   0.01    -0.22   0.13  -0.02    -0.18   0.33   0.06
    54   1     0.14   0.02  -0.05    -0.20   0.13   0.04    -0.08   0.21  -0.01
    55   1     0.06  -0.04  -0.09     0.06   0.05  -0.09    -0.08  -0.11   0.10
    56   1     0.22  -0.05  -0.08     0.06  -0.00  -0.09    -0.13  -0.03   0.10
    57   1     0.28  -0.07   0.03     0.00  -0.10  -0.06    -0.07   0.12   0.02
    58   1     0.18  -0.08   0.14    -0.05  -0.13  -0.03     0.03   0.16  -0.06
    59   1     0.03  -0.06   0.12    -0.04  -0.06  -0.03     0.06   0.05  -0.05
    60   1    -0.01   0.02   0.08     0.00  -0.06  -0.23     0.04   0.03  -0.01
    61   1    -0.03   0.04   0.09     0.01  -0.04  -0.12    -0.03   0.11  -0.03
    62   1    -0.05   0.02   0.02     0.02   0.04   0.15    -0.13   0.09  -0.01
    63   1    -0.05  -0.03  -0.06     0.02   0.09   0.30    -0.16  -0.00   0.03
    64   1    -0.04  -0.04  -0.06     0.02   0.07   0.16    -0.09  -0.07   0.04
    65   1    -0.10  -0.01  -0.05    -0.07   0.06  -0.01     0.07  -0.09   0.04
    66   1    -0.04  -0.01  -0.02    -0.03   0.01   0.12    -0.00  -0.06  -0.04
    67   1     0.09  -0.02   0.06     0.08  -0.10   0.20    -0.12  -0.03  -0.11
    68   1     0.16  -0.03   0.10     0.12  -0.16   0.13    -0.13  -0.01  -0.09
    69   1     0.09  -0.02   0.07     0.06  -0.11  -0.01    -0.04  -0.03  -0.01
                     13                     14                     15
                      A                      A                      A
 Frequencies --     69.5598                73.1044                84.9732
 Red. masses --      5.2130                 4.4066                 6.4567
 Frc consts  --      0.0149                 0.0139                 0.0275
 IR Inten    --      1.1662                 0.0984                 3.7113
  Atom  AN      X      Y      Z        X      Y      Z        X      Y      Z
     1   6     0.05   0.01   0.03     0.03   0.00   0.00     0.04   0.01   0.00
     2   6     0.09   0.05   0.01     0.03   0.00  -0.00     0.08   0.09  -0.02
     3   6     0.09   0.05  -0.01     0.03  -0.00  -0.01     0.08   0.09  -0.02
     4   6     0.05   0.02  -0.01     0.02  -0.01  -0.01     0.04   0.02  -0.01
     5   6     0.01  -0.02   0.01     0.01  -0.01  -0.00    -0.00  -0.05   0.01
     6   6     0.01  -0.02   0.03     0.02   0.00   0.00    -0.00  -0.05   0.01
     7   6    -0.00  -0.02   0.05     0.02   0.01   0.01    -0.01  -0.05   0.01
     8   8    -0.01   0.05   0.01     0.01   0.01  -0.00     0.08   0.15  -0.02
     9   8     0.01   0.01   0.09     0.02  -0.00   0.01    -0.02   0.04   0.22
    10  16    -0.01   0.01   0.04     0.01   0.00   0.00     0.02   0.03   0.05
    11   7    -0.01   0.01   0.03     0.01   0.01   0.00    -0.00  -0.02  -0.00
    12   8    -0.03  -0.04   0.01     0.01  -0.01  -0.00    -0.04  -0.08   0.01
    13   6    -0.00  -0.03   0.00    -0.03   0.05   0.02    -0.10  -0.10  -0.01
    14   6     0.02  -0.05   0.03    -0.06   0.07   0.01    -0.08  -0.10   0.06
    15   6     0.09  -0.09   0.03    -0.09   0.09   0.01    -0.05  -0.03   0.09
    16   6     0.15  -0.11   0.00    -0.11   0.09   0.02    -0.05   0.04   0.05
    17   6     0.13  -0.10  -0.02    -0.08   0.07   0.03    -0.07   0.04  -0.03
    18   8    -0.03   0.01  -0.03     0.01   0.01   0.03    -0.12  -0.03  -0.10
    19   6     0.05  -0.06  -0.02    -0.04   0.04   0.02    -0.09  -0.03  -0.05
    20   6     0.02  -0.03  -0.03    -0.01   0.02   0.03    -0.08  -0.05  -0.10
    21   8     0.05  -0.05  -0.03    -0.01   0.02   0.03    -0.02  -0.08  -0.11
    22   6    -0.00  -0.04   0.03     0.01   0.02  -0.00    -0.01  -0.03  -0.01
    23   7    -0.00  -0.06  -0.01     0.01   0.01  -0.03    -0.01  -0.01   0.01
    24   6    -0.00   0.02  -0.05     0.00  -0.00  -0.03    -0.03   0.01   0.00
    25   7    -0.02  -0.04  -0.06     0.01  -0.00  -0.04    -0.03   0.03   0.01
    26   6    -0.03   0.04  -0.04     0.02  -0.03  -0.02     0.01  -0.01   0.02
    27   6     0.01  -0.00  -0.01    -0.01  -0.02  -0.01    -0.01   0.04  -0.02
    28  15    -0.00   0.01  -0.05    -0.00  -0.01  -0.03    -0.02   0.03   0.01
    29   6     0.07   0.12  -0.04     0.07   0.08  -0.03     0.01   0.05  -0.01
    30   6     0.06   0.11  -0.04     0.08   0.07  -0.03     0.04   0.06  -0.01
    31   6    -0.03  -0.01  -0.05     0.01  -0.01  -0.03     0.03   0.03   0.01
    32   6    -0.11  -0.11  -0.05    -0.06  -0.10  -0.03    -0.02  -0.01   0.02
    33   6    -0.09  -0.08  -0.05    -0.06  -0.08  -0.03    -0.05  -0.02   0.02
    34   6    -0.02   0.08  -0.00     0.01  -0.02   0.16    -0.01  -0.08  -0.02
    35   6    -0.04   0.14   0.07     0.03  -0.03   0.21     0.04  -0.15  -0.06
    36   6    -0.08   0.13   0.10     0.06  -0.06   0.06     0.10  -0.13  -0.05
    37   6    -0.09   0.08   0.04     0.07  -0.08  -0.14     0.12  -0.04   0.01
    38   6    -0.06   0.03  -0.02     0.05  -0.07  -0.18     0.07   0.01   0.04
    39   6    -0.01   0.02   0.01     0.03  -0.02   0.03    -0.07   0.03  -0.07
    40   6    -0.07   0.01   0.01     0.02  -0.02   0.04    -0.03   0.04  -0.08
    41   6    -0.09  -0.02   0.00    -0.04  -0.03   0.00     0.06   0.06  -0.02
    42   6    -0.06  -0.04  -0.01    -0.08  -0.03  -0.03     0.12   0.06   0.03
    43   6    -0.01  -0.03  -0.02    -0.06  -0.03  -0.04     0.07   0.06   0.03
    44   1     0.06   0.01   0.05     0.03   0.01   0.01     0.04   0.02   0.01
    45   1     0.12   0.08   0.01     0.04   0.01  -0.00     0.12   0.15  -0.03
    46   1     0.11   0.09  -0.03     0.03  -0.00  -0.01     0.12   0.16  -0.04
    47   1     0.04   0.02  -0.03     0.01  -0.01  -0.01     0.04   0.03  -0.02
    48   1    -0.02  -0.02   0.07     0.03   0.01   0.01     0.01  -0.05   0.03
    49   1    -0.01   0.02  -0.00     0.01   0.01   0.01     0.00  -0.01  -0.04
    50   1    -0.06  -0.00   0.00     0.00   0.03   0.02    -0.13  -0.15  -0.03
    51   1    -0.02  -0.03   0.05    -0.05   0.08   0.00    -0.08  -0.15   0.10
    52   1     0.11  -0.10   0.05    -0.12   0.11   0.00    -0.04  -0.03   0.14
    53   1     0.22  -0.15   0.00    -0.14   0.11   0.02    -0.03   0.10   0.07
    54   1     0.17  -0.12  -0.04    -0.08   0.06   0.03    -0.06   0.09  -0.06
    55   1     0.14   0.20  -0.04     0.12   0.13  -0.03     0.02   0.07  -0.02
    56   1     0.13   0.19  -0.04     0.13   0.14  -0.03     0.08   0.09  -0.01
    57   1    -0.05  -0.02  -0.05     0.01  -0.02  -0.03     0.05   0.05   0.01
    58   1    -0.18  -0.20  -0.06    -0.11  -0.16  -0.03    -0.03  -0.04   0.03
    59   1    -0.14  -0.14  -0.05    -0.10  -0.13  -0.02    -0.08  -0.05   0.02
    60   1     0.01   0.09  -0.03    -0.02   0.01   0.26    -0.05  -0.10  -0.03
    61   1    -0.04   0.18   0.10     0.02  -0.01   0.36     0.03  -0.21  -0.10
    62   1    -0.10   0.17   0.16     0.08  -0.07   0.10     0.14  -0.17  -0.08
    63   1    -0.12   0.08   0.06     0.10  -0.11  -0.25     0.17  -0.03   0.03
    64   1    -0.07  -0.01  -0.05     0.05  -0.08  -0.31     0.09   0.07   0.08
    65   1     0.01   0.05   0.02     0.08  -0.01   0.06    -0.13   0.02  -0.11
    66   1    -0.09   0.03   0.03     0.06  -0.02   0.07    -0.08   0.04  -0.13
    67   1    -0.14  -0.03   0.00    -0.05  -0.03   0.01     0.10   0.06  -0.02
    68   1    -0.08  -0.07  -0.02    -0.12  -0.04  -0.06     0.19   0.07   0.08
    69   1     0.01  -0.05  -0.03    -0.09  -0.03  -0.06     0.11   0.06   0.07
                     16                     17                     18
                      A                      A                      A
 Frequencies --     89.1655                93.0360               106.7619
 Red. masses --      7.7749                 4.5621                 8.0903
 Frc consts  --      0.0364                 0.0233                 0.0543
 IR Inten    --      5.3226                 0.5255                 6.5939
  Atom  AN      X      Y      Z        X      Y      Z        X      Y      Z
     1   6     0.01   0.14  -0.13    -0.01   0.01   0.00    -0.02  -0.05   0.03
     2   6    -0.02   0.12  -0.11    -0.03  -0.02   0.01     0.02  -0.01   0.01
     3   6    -0.09  -0.03  -0.05    -0.04  -0.04   0.01     0.04   0.03  -0.01
     4   6    -0.10  -0.12  -0.02    -0.02  -0.02   0.01     0.01   0.02  -0.02
     5   6    -0.05  -0.07  -0.05    -0.01   0.02  -0.00    -0.03  -0.03   0.01
     6   6    -0.01   0.03  -0.10     0.00   0.03  -0.00    -0.04  -0.05   0.03
     7   6    -0.01  -0.01  -0.11    -0.00   0.03   0.00    -0.05  -0.06   0.04
     8   8     0.16   0.20  -0.10    -0.04  -0.04   0.01    -0.08  -0.03   0.01
     9   8     0.01   0.06   0.19     0.01  -0.01  -0.07    -0.05  -0.04   0.01
    10  16     0.05   0.05  -0.02    -0.01  -0.00  -0.01    -0.06  -0.03   0.02
    11   7     0.02  -0.02  -0.10    -0.01   0.02   0.00    -0.05  -0.04   0.03
    12   8    -0.05  -0.09  -0.05     0.00   0.03  -0.00    -0.06  -0.04   0.01
    13   6     0.01   0.03   0.06     0.04   0.04   0.00     0.12   0.02  -0.01
    14   6    -0.02   0.03  -0.04     0.02   0.05  -0.03     0.00   0.14  -0.02
    15   6    -0.05  -0.07  -0.08    -0.01   0.04  -0.04    -0.05   0.16  -0.02
    16   6    -0.06  -0.16  -0.02    -0.02   0.01  -0.02     0.03   0.06  -0.02
    17   6    -0.03  -0.15   0.08    -0.00   0.00   0.02     0.14  -0.05  -0.01
    18   8     0.12  -0.10   0.17     0.03   0.03   0.05     0.34  -0.22  -0.01
    19   6     0.00  -0.06   0.11     0.03   0.02   0.03     0.18  -0.06  -0.01
    20   6     0.02  -0.05   0.17     0.03   0.02   0.05     0.21  -0.10  -0.00
    21   8    -0.07  -0.01   0.19     0.02   0.02   0.05     0.08   0.00   0.01
    22   6     0.01  -0.02  -0.09     0.01  -0.00   0.01    -0.05  -0.08   0.03
    23   7     0.01  -0.01  -0.06     0.01  -0.02   0.00    -0.05  -0.04   0.00
    24   6     0.01   0.01   0.01    -0.03  -0.04   0.03    -0.04   0.05  -0.02
    25   7     0.02   0.01   0.00     0.02  -0.06   0.01    -0.09   0.04  -0.01
    26   6     0.01   0.01   0.01     0.01  -0.03   0.05    -0.05   0.03  -0.02
    27   6     0.01   0.01   0.01     0.05  -0.03   0.01    -0.08   0.07  -0.03
    28  15     0.01   0.01   0.01     0.01  -0.05   0.03    -0.07   0.07  -0.02
    29   6    -0.00   0.00   0.02     0.06   0.11   0.07    -0.03   0.05  -0.04
    30   6    -0.02   0.00   0.02     0.08   0.20   0.07    -0.02   0.03  -0.04
    31   6    -0.03   0.01   0.01    -0.01   0.12   0.03    -0.03   0.00  -0.02
    32   6    -0.01   0.01  -0.00    -0.12  -0.05  -0.01    -0.04   0.01  -0.01
    33   6     0.01   0.01  -0.00    -0.12  -0.11  -0.01    -0.04   0.03  -0.01
    34   6     0.01   0.02   0.00     0.01  -0.03  -0.01    -0.07  -0.05  -0.02
    35   6     0.01   0.03  -0.01    -0.00  -0.04  -0.08    -0.01  -0.10  -0.00
    36   6    -0.00   0.02  -0.02    -0.02  -0.04  -0.06     0.06  -0.08   0.02
    37   6    -0.01   0.01  -0.01    -0.02  -0.03   0.02     0.08  -0.00   0.01
    38   6     0.00   0.01   0.01    -0.01  -0.03   0.07     0.03   0.05  -0.01
    39   6     0.01   0.01   0.02    -0.05  -0.04  -0.09    -0.07   0.07  -0.02
    40   6    -0.00   0.01   0.01    -0.09  -0.02  -0.16     0.00   0.07   0.02
    41   6    -0.02   0.01   0.00    -0.01   0.01  -0.12     0.06   0.06   0.06
    42   6    -0.02   0.01   0.00     0.11   0.02  -0.01     0.03   0.06   0.04
    43   6    -0.00   0.01   0.01     0.13  -0.00   0.05    -0.04   0.07  -0.01
    44   1     0.05   0.23  -0.18    -0.01   0.02   0.00    -0.03  -0.08   0.05
    45   1    -0.00   0.21  -0.13    -0.04  -0.04   0.01     0.04  -0.00   0.01
    46   1    -0.12  -0.05  -0.02    -0.05  -0.07   0.02     0.07   0.08  -0.03
    47   1    -0.14  -0.21   0.02    -0.03  -0.03   0.01     0.02   0.05  -0.04
    48   1    -0.03  -0.01  -0.13    -0.02   0.02   0.00    -0.07  -0.06   0.06
    49   1     0.08  -0.06  -0.03    -0.01   0.02   0.01     0.01  -0.08   0.04
[...]
 Vib (Bot)    3  0.716629D+01          0.855294          1.969388
 Vib (Bot)    4  0.558648D+01          0.747138          1.720349
 Vib (Bot)    5  0.500766D+01          0.699635          1.610968
 Vib (Bot)    6  0.476871D+01          0.678401          1.562076
 Vib (Bot)    7  0.428192D+01          0.631639          1.454402
 Vib (Bot)    8  0.404759D+01          0.607196          1.398120
 Vib (Bot)    9  0.365817D+01          0.563264          1.296962
 Vib (Bot)   10  0.341331D+01          0.533175          1.227682
 Vib (Bot)   11  0.275741D+01          0.440502          1.014293
 Vib (Bot)   12  0.261359D+01          0.417237          0.960724
 Vib (Bot)   13  0.248530D+01          0.395379          0.910394
 Vib (Bot)   14  0.213319D+01          0.329029          0.757617
 Vib (Bot)   15  0.203105D+01          0.307721          0.708554
 Vib (Bot)   16  0.194485D+01          0.288887          0.665187
 Vib (Bot)   17  0.168906D+01          0.227645          0.524173
 Vib (Bot)   18  0.151270D+01          0.179752          0.413895
 Vib (Bot)   19  0.120801D+01          0.082072          0.188978
 Vib (Bot)   20  0.112371D+01          0.050654          0.116636
 Vib (Bot)   21  0.101255D+01          0.005417          0.012473
 Vib (Bot)   22  0.981335D+00         -0.008182         -0.018841
 Vib (Bot)   23  0.924317D+00         -0.034179         -0.078700
 Vib (Bot)   24  0.892401D+00         -0.049440         -0.113840
 Vib (Bot)   25  0.740342D+00         -0.130568         -0.300643
 Vib (Bot)   26  0.688434D+00         -0.162138         -0.373336
 Vib (Bot)   27  0.671635D+00         -0.172867         -0.398041
 Vib (Bot)   28  0.642811D+00         -0.191917         -0.441905
 Vib (Bot)   29  0.622878D+00         -0.205597         -0.473404
 Vib (Bot)   30  0.606606D+00         -0.217093         -0.499875
 Vib (Bot)   31  0.602373D+00         -0.220134         -0.506878
 Vib (Bot)   32  0.565486D+00         -0.247578         -0.570070
 Vib (Bot)   33  0.478920D+00         -0.319737         -0.736221
 Vib (Bot)   34  0.471973D+00         -0.326083         -0.750833
 Vib (Bot)   35  0.447314D+00         -0.349387         -0.804494
 Vib (Bot)   36  0.388937D+00         -0.410121         -0.944337
 Vib (Bot)   37  0.377014D+00         -0.423642         -0.975473
 Vib (Bot)   38  0.367213D+00         -0.435082         -1.001813
 Vib (Bot)   39  0.361255D+00         -0.442186         -1.018172
 Vib (Bot)   40  0.357486D+00         -0.446740         -1.028658
 Vib (Bot)   41  0.351792D+00         -0.453715         -1.044717
 Vib (Bot)   42  0.349282D+00         -0.456824         -1.051876
 Vib (Bot)   43  0.328192D+00         -0.483872         -1.114157
 Vib (Bot)   44  0.320209D+00         -0.494567         -1.138783
 Vib (Bot)   45  0.312947D+00         -0.504529         -1.161722
 Vib (Bot)   46  0.308566D+00         -0.510652         -1.175821
 Vib (Bot)   47  0.296899D+00         -0.527392         -1.214365
 Vib (Bot)   48  0.278211D+00         -0.555626         -1.279375
 Vib (Bot)   49  0.270098D+00         -0.568478         -1.308969
 Vib (Bot)   50  0.267355D+00         -0.572911         -1.319176
 Vib (Bot)   51  0.260578D+00         -0.584062         -1.344853
 Vib (Bot)   52  0.248261D+00         -0.605092         -1.393276
 Vib (Bot)   53  0.242646D+00         -0.615028         -1.416154
 Vib (Bot)   54  0.241500D+00         -0.617082         -1.420884
 Vib (V=0)       0.750112D+15         14.875126         34.251244
 Vib (V=0)    1  0.155419D+02          1.191503          2.743537
 Vib (V=0)    2  0.109023D+02          1.037520          2.388978
 Vib (V=0)    3  0.768371D+01          0.885571          2.039103
 Vib (V=0)    4  0.610881D+01          0.785957          1.809732
 Vib (V=0)    5  0.553256D+01          0.742926          1.710650
 Vib (V=0)    6  0.529485D+01          0.723854          1.666735
 Vib (V=0)    7  0.481101D+01          0.682237          1.570908
 Vib (V=0)    8  0.457835D+01          0.660709          1.521339
 Vib (V=0)    9  0.419218D+01          0.622440          1.433221
 Vib (V=0)   10  0.394973D+01          0.596568          1.373648
 Vib (V=0)   11  0.330238D+01          0.518827          1.194643
 Vib (V=0)   12  0.316099D+01          0.499823          1.150884
 Vib (V=0)   13  0.303510D+01          0.482173          1.110244
 Vib (V=0)   14  0.269100D+01          0.429914          0.989913
 Vib (V=0)   15  0.259169D+01          0.413583          0.952310
 Vib (V=0)   16  0.250810D+01          0.399344          0.919524
 Vib (V=0)   17  0.226151D+01          0.354399          0.816034
 Vib (V=0)   18  0.209319D+01          0.320809          0.738689
 Vib (V=0)   19  0.180740D+01          0.257055          0.591890
 Vib (V=0)   20  0.172993D+01          0.238028          0.548080
 Vib (V=0)   21  0.162927D+01          0.211994          0.488134
 Vib (V=0)   22  0.160137D+01          0.204492          0.470860
 Vib (V=0)   23  0.155089D+01          0.190580          0.438827
 Vib (V=0)   24  0.152293D+01          0.182679          0.420634
 Vib (V=0)   25  0.139337D+01          0.144066          0.331724
 Vib (V=0)   26  0.135085D+01          0.130606          0.300732
 Vib (V=0)   27  0.133731D+01          0.126233          0.290662
 Vib (V=0)   28  0.131437D+01          0.118719          0.273361
 Vib (V=0)   29  0.129873D+01          0.113520          0.261391
 Vib (V=0)   30  0.128611D+01          0.109279          0.251623
 Vib (V=0)   31  0.128285D+01          0.108176          0.249084
 Vib (V=0)   32  0.125483D+01          0.098586          0.227003
 Vib (V=0)   33  0.119236D+01          0.076408          0.175936
 Vib (V=0)   34  0.118757D+01          0.074661          0.171913
 Vib (V=0)   35  0.117089D+01          0.068515          0.157762
 Vib (V=0)   36  0.113346D+01          0.054406          0.125275
 Vib (V=0)   37  0.112621D+01          0.051620          0.118858
 Vib (V=0)   38  0.112036D+01          0.049357          0.113649
 Vib (V=0)   39  0.111685D+01          0.047995          0.110513
 Vib (V=0)   40  0.111465D+01          0.047139          0.108542
 Vib (V=0)   41  0.111136D+01          0.045854          0.105582
 Vib (V=0)   42  0.110992D+01          0.045290          0.104285
 Vib (V=0)   43  0.109809D+01          0.040637          0.093571
 Vib (V=0)   44  0.109375D+01          0.038916          0.089608
 Vib (V=0)   45  0.108986D+01          0.037371          0.086050
 Vib (V=0)   46  0.108755D+01          0.036448          0.083926
 Vib (V=0)   47  0.108151D+01          0.034029          0.078354
 Vib (V=0)   48  0.107219D+01          0.030272          0.069703
 Vib (V=0)   49  0.106829D+01          0.028689          0.066059
 Vib (V=0)   50  0.106699D+01          0.028161          0.064843
 Vib (V=0)   51  0.106383D+01          0.026871          0.061873
 Vib (V=0)   52  0.105824D+01          0.024585          0.056608
 Vib (V=0)   53  0.105577D+01          0.023568          0.054267
 Vib (V=0)   54  0.105527D+01          0.023363          0.053795
 Electronic      0.100000D+01          0.000000          0.000000
 Translational   0.430330D+09          8.633801         19.880062
 Rotational      0.429226D+08          7.632686         17.574909
 ***** Axes restored to original set *****
 -------------------------------------------------------------------
 Center     Atomic                   Forces (Hartrees/Bohr)
 Number     Number              X              Y              Z
 -------------------------------------------------------------------
      1        6          -0.000000234   -0.000002450   -0.000001496
      2        6           0.000001397   -0.000000537   -0.000001260
      3        6           0.000000587   -0.000000224   -0.000001837
      4        6           0.000000055   -0.000000439   -0.000001975
      5        6          -0.000000530   -0.000003436   -0.000001516
      6        6           0.000002744    0.000005289   -0.000001860
      7        6           0.000003610   -0.000005947   -0.000004967
      8        8          -0.000000723   -0.000000387   -0.000000979
      9        8          -0.000000594    0.000000166   -0.000002559
     10       16          -0.000003374    0.000002808   -0.000006905
     11        7           0.000011912   -0.000006134   -0.000000134
     12        8           0.000002529    0.000002971   -0.000000854
     13        6           0.000002330   -0.000002041   -0.000001365
     14        6           0.000000678   -0.000000847   -0.000000535
     15        6          -0.000000251    0.000000569    0.000000193
     16        6           0.000000044    0.000000926   -0.000000106
     17        6          -0.000002800    0.000000590    0.000000494
     18        8          -0.000002618   -0.000004298   -0.000007784
     19        6           0.000002786   -0.000001717   -0.000001881
     20        6           0.000004344    0.000003859    0.000004098
     21        8           0.000004204   -0.000004653    0.000000144
     22        6          -0.000003555    0.000013635   -0.000004044
     23        7          -0.000002460   -0.000006625    0.000006223
     24        6           0.000002238    0.000002676    0.000001083
     25        7          -0.000001511    0.000004746   -0.000007529
     26        6           0.000000230   -0.000001065    0.000001917
     27        6           0.000000913   -0.000000775    0.000002462
     28       15          -0.000000819   -0.000006104    0.000000277
     29        6          -0.000000510    0.000001274    0.000001191
     30        6          -0.000000950    0.000000396    0.000000787
     31        6          -0.000001682    0.000000260    0.000000829
     32        6          -0.000001462    0.000000475    0.000000018
     33        6          -0.000002482    0.000000905    0.000000447
     34        6           0.000000391   -0.000000047    0.000002095
     35        6          -0.000000060   -0.000000192    0.000001217
     36        6           0.000000182   -0.000000149    0.000001571
     37        6          -0.000000133    0.000000198    0.000001682
     38        6          -0.000000448    0.000000754   -0.000001252
     39        6          -0.000003978    0.000000771   -0.000001886
     40        6          -0.000000020    0.000000238    0.000000630
     41        6           0.000000564   -0.000000301    0.000001494
     42        6           0.000000387    0.000000011    0.000001115
     43        6           0.000002195   -0.000000385    0.000002214
     44        1           0.000000433   -0.000000421   -0.000000981
     45        1           0.000001486   -0.000000036   -0.000001428
     46        1           0.000001158   -0.000000162   -0.000002090
     47        1           0.000000500   -0.000000093   -0.000002266
     48        1          -0.000000729   -0.000000493    0.000000439
     49        1          -0.000008586    0.000003147    0.000013598
     50        1          -0.000002256    0.000001392    0.000000153
     51        1          -0.000000622    0.000000144    0.000000099
     52        1           0.000000330   -0.000000278    0.000000079
     53        1           0.000000487    0.000000053   -0.000000109
     54        1           0.000001276    0.000000332   -0.000000441
     55        1          -0.000000837    0.000000040    0.000001305
     56        1          -0.000001369    0.000000103    0.000001042
     57        1          -0.000001711    0.000000517    0.000000469
     58        1          -0.000001682    0.000000847   -0.000000243
     59        1          -0.000004477    0.000000888   -0.000001296
     60        1           0.000000518   -0.000000170    0.000001507
     61        1           0.000000054   -0.000000087    0.000002122
     62        1           0.000000280   -0.000000235    0.000001542
     63        1          -0.000000091    0.000000277    0.000000951
     64        1           0.000000419    0.000000514    0.000000751
     65        1           0.000000894   -0.000000944    0.000000688
     66        1          -0.000000242   -0.000000026    0.000000647
     67        1           0.000000647   -0.000000253    0.000001257
     68        1           0.000001383   -0.000000454    0.000001582
     69        1          -0.000000391    0.000000635    0.000001163
 -------------------------------------------------------------------
 Cartesian Forces:  Max     0.000013635 RMS     0.000002691
 FormGI is forming the generalized inverse of G from B-inverse, IUseBI=4.

 ----------------------------------------------------------------------

 Electric dipole moment (input orientation):
 (Debye = 10**-18 statcoulomb cm , SI units = C m)
                  (au)            (Debye)         (10**-30 SI)
   Tot        0.752027D+01      0.191146D+02      0.637595D+02
   x          0.665125D+01      0.169058D+02      0.563917D+02
   y         -0.243626D+01     -0.619236D+01     -0.206555D+02
   z         -0.252583D+01     -0.642003D+01     -0.214149D+02

 Dipole polarizability, Alpha (input orientation).
 (esu units = cm**3 , SI units = C**2 m**2 J**-1)
 Alpha(0;0):
               (au)            (10**-24 esu)      (10**-40 SI)
   iso        0.509796D+03      0.755440D+02      0.840541D+02
   aniso      0.725364D+02      0.107488D+02      0.119596D+02
   xx         0.545464D+03      0.808295D+02      0.899349D+02
   yx         0.351584D+01      0.520994D+00      0.579684D+00
   yy         0.483165D+03      0.715976D+02      0.796631D+02
   zx        -0.257925D+02     -0.382206D+01     -0.425261D+01
   zy        -0.668375D+01     -0.990430D+00     -0.110200D+01
   zz         0.500760D+03      0.742050D+02      0.825642D+02

 ----------------------------------------------------------------------

 Dipole orientation:
     6         -7.53399015          1.18759107         -3.45145751
     6         -9.74410935          0.28815177         -4.54187731
     6         -9.86164405         -0.07435488         -7.14821176
     6         -7.78299966          0.48459442         -8.64800006
     6         -5.58443042          1.37512796         -7.52401421
     6         -5.41102686          1.72092594         -4.91912052
     6         -3.01882648          2.72043791         -3.66477078
     8          0.63631532          3.60334898         -9.81494658
     8         -2.82299595          6.34259241         -8.00693886
    16         -1.51625186          3.94701023         -8.18630210
     7         -0.82545780          2.96262828         -5.35820759
     8         -3.57118052          1.84585616         -9.15657180
     6          4.05769235         -5.68548229         -2.46532945
     6          4.98413131         -7.91135620         -1.41453176
     6          3.31322621         -9.76752021         -0.57769429
     6          0.71341472         -9.38418237         -0.78006068
     6         -0.20856747         -7.15077444         -1.81799712
     8          2.03456198         -1.22456702         -4.48528663
     6          1.45751263         -5.29152983         -2.67133848
     6          0.45411962         -2.82637279         -3.69921144
     8         -1.90823957         -2.46897401         -3.61221096
     6         -2.21243940          1.07568751         -1.57180190
     7         -1.41208095          0.61547277          0.43998058
     6          3.96184548          1.77165093          3.07982483
     7         -0.52072787         -1.04449246          2.04282199
     6          2.33224468         -2.71381929          5.92214326
     6         -0.36116887          2.13846905          6.51094337
    15          1.26320420          0.08732107          4.32349630
     6          5.45711137          3.28858688          4.64994539
     6          7.59830379          4.45688810          3.67754132
     6          8.25004167          4.11751845          1.14693641
     6          6.76854358          2.60116130         -0.41025446
     6          4.62676923          1.41226616          0.54708650
     6          3.40821471         -2.52164657          8.33026749
     6          4.37138815         -4.66697284          9.49978926
     6          4.27413443         -6.99271059          8.26704997
     6          3.22059417         -7.17634693          5.86290134
     6          2.25298444         -5.04127745          4.67299443
     6         -0.46323558          4.74165123          6.04733451
     6         -1.91755346          6.29027107          7.59455406
     6         -3.27610347          5.25158150          9.59507243
     6         -3.19801551          2.65844603         10.04737126
     6         -1.75594660          1.09693499          8.50452665
     1         -7.43799562          1.46121311         -1.41787784
     1        -11.36758406         -0.13034122         -3.36265088
     1        -11.57857503         -0.77834794         -8.02006786
     1         -7.82625790          0.24335094        -10.68250607
     1         -3.41002717          4.57705138         -2.82617237
     1          0.34207904          1.34264617         -5.34208499
     1          5.33395842         -4.22061662         -3.12051516
     1          7.00908747         -8.20027146         -1.24746343
     1          4.03503096        -11.50909688          0.23530874
     1         -0.59247479        -10.82464992         -0.12250369
     1         -2.22411818         -6.80779116         -1.96300997
     1          4.95087079          3.57455414          6.61884750
     1          8.75417584          5.63698810          4.89246273
     1          9.91903696          5.04017781          0.39111749
     1          7.26821153          2.33408074         -2.38101884
     1          3.50422936          0.22726392         -0.70027120
     1          3.48029487         -0.71573365          9.30410599
     1          5.19459969         -4.52243570         11.37203456
     1          5.02742207         -8.66561089          9.18484719
     1          3.15181754         -8.98159349          4.89311124
     1          1.44121944         -5.18068658          2.79457050
     1          0.59461947          5.56533902          4.49446433
     1         -1.98554582          8.30800100          7.23693810
     1         -4.40389049          6.46572126         10.80380472
     1         -4.26245987          1.84934421         11.60172864
     1         -1.71106061         -0.92343193          8.85862084

 Electric dipole moment (dipole orientation):
 (Debye = 10**-18 statcoulomb cm , SI units = C m)
                  (au)            (Debye)         (10**-30 SI)
   Tot        0.752027D+01      0.191146D+02      0.637595D+02
   x          0.000000D+00      0.000000D+00      0.000000D+00
   y          0.000000D+00      0.000000D+00      0.000000D+00
   z          0.752027D+01      0.191146D+02      0.637595D+02

 Dipole polarizability, Alpha (dipole orientation).
 (esu units = cm**3 , SI units = C**2 m**2 J**-1)
 Alpha(0;0):
               (au)            (10**-24 esu)      (10**-40 SI)
   iso        0.509796D+03      0.755440D+02      0.840541D+02
   aniso      0.725364D+02      0.107488D+02      0.119596D+02
   xx         0.486810D+03      0.721378D+02      0.802641D+02
   yx         0.441190D+01      0.653776D+00      0.727424D+00
   yy         0.496842D+03      0.736243D+02      0.819181D+02
   zx         0.361435D+01      0.535591D+00      0.595925D+00
   zy        -0.269691D+02     -0.399640D+01     -0.444660D+01
   zz         0.545738D+03      0.808700D+02      0.899800D+02

 ----------------------------------------------------------------------

 This type of calculation cannot be archived.


 ALL SCIENCE IS EITHER PHYSICS, OR STAMP COLLECTING.
   --ERNEST RUTHERFORD, 1871-1937.
 Job cpu time:       0 days  0 hours  0 minutes  2.3 seconds.
 Elapsed time:       0 days  0 hours  0 minutes  0.6 seconds.
 File lengths (MBytes):  RWF=     10 Int=      0 D2E=      0 Chk=     12 Scr=      1
 Normal termination of Gaussian 16 at Sat Apr  4 18:13:11 2020.
