 Entering Gaussian System, Link 0=g16
 Input=cyclic_3.gjf
 Output=cyclic_3.log
 Initial command:
 /apps/cent7/gaussian/g16-A.03/g16-haswell/g16/l1.exe "/scratch/brown/finej/0051_imine_mechanism/ts_631gd/cyclic_complete_2/new_logs_2/Gau-69007.inp" -scrdir="/scratch/brown/finej/0051_imine_mechanism/ts_631gd/cyclic_complete_2/new_logs_2/"
 Entering Link 1 = /apps/cent7/gaussian/g16-A.03/g16-haswell/g16/l1.exe PID=     69008.
  
 Copyright (c) 1988,1990,1992,1993,1995,1998,2003,2009,2016,
            Gaussian, Inc.  All Rights Reserved.
  
 This is part of the Gaussian(R) 16 program.  It is based on
 the Gaussian(R) 09 system (copyright 2009, Gaussian, Inc.),
 the Gaussian(R) 03 system (copyright 2003, Gaussian, Inc.),
 the Gaussian(R) 98 system (copyright 1998, Gaussian, Inc.),
 the Gaussian(R) 94 system (copyright 1995, Gaussian, Inc.),
 the Gaussian 92(TM) system (copyright 1992, Gaussian, Inc.),
 the Gaussian 90(TM) system (copyright 1990, Gaussian, Inc.),
 the Gaussian 88(TM) system (copyright 1988, Gaussian, Inc.),
 the Gaussian 86(TM) system (copyright 1986, Carnegie Mellon
 University), and the Gaussian 82(TM) system (copyright 1983,
 Carnegie Mellon University). Gaussian is a federally registered
 trademark of Gaussian, Inc.
  
 This software contains proprietary and confidential information,
 including trade secrets, belonging to Gaussian, Inc.
  
 This software is provided under written license and may be
 used, copied, transmitted, or stored only in accord with that
 written license.
  
 The following legend is applicable only to US Government
 contracts under FAR:
  
                    RESTRICTED RIGHTS LEGEND
  
 Use, reproduction and disclosure by the US Government is
 subject to restrictions as set forth in subparagraphs (a)
 and (c) of the Commercial Computer Software - Restricted
 Rights clause in FAR 52.227-19.
  
 Gaussian, Inc.
 340 Quinnipiac St., Bldg. 40, Wallingford CT 06492
  
  
 ---------------------------------------------------------------
 Warning -- This program may not be used in any manner that
 competes with the business of Gaussian, Inc. or will provide
 assistance to any competitor of Gaussian, Inc.  The licensee
 of this program is prohibited from giving any competitor of
 Gaussian, Inc. access to this program.  By using this program,
 the user acknowledges that Gaussian, Inc. is engaged in the
 business of creating and licensing software in the field of
 computational chemistry and represents and warrants to the
 licensee that it is not a competitor of Gaussian, Inc. and that
 it will not use this program in any manner prohibited above.
 ---------------------------------------------------------------
  

 Cite this work as:
 Gaussian 16, Revision A.03,
 M. J. Frisch, G. W. Trucks, H. B. Schlegel, G. E. Scuseria, 
 M. A. Robb, J. R. Cheeseman, G. Scalmani, V. Barone, 
 G. A. Petersson, H. Nakatsuji, X. Li, M. Caricato, A. V. Marenich, 
 J. Bloino, B. G. Janesko, R. Gomperts, B. Mennucci, H. P. Hratchian, 
 J. V. Ortiz, A. F. Izmaylov, J. L. Sonnenberg, D. Williams-Young, 
 F. Ding, F. Lipparini, F. Egidi, J. Goings, B. Peng, A. Petrone, 
 T. Henderson, D. Ranasinghe, V. G. Zakrzewski, J. Gao, N. Rega, 
 G. Zheng, W. Liang, M. Hada, M. Ehara, K. Toyota, R. Fukuda, 
 J. Hasegawa, M. Ishida, T. Nakajima, Y. Honda, O. Kitao, H. Nakai, 
 T. Vreven, K. Throssell, J. A. Montgomery, Jr., J. E. Peralta, 
 F. Ogliaro, M. J. Bearpark, J. J. Heyd, E. N. Brothers, K. N. Kudin, 
 V. N. Staroverov, T. A. Keith, R. Kobayashi, J. Normand, 
 K. Raghavachari, A. P. Rendell, J. C. Burant, S. S. Iyengar, 
 J. Tomasi, M. Cossi, J. M. Millam, M. Klene, C. Adamo, R. Cammi, 
 J. W. Ochterski, R. L. Martin, K. Morokuma, O. Farkas, 
 J. B. Foresman, and D. J. Fox, Gaussian, Inc., Wallingford CT, 2016.
 
 ******************************************
 Gaussian 16:  ES64L-G16RevA.03 25-Dec-2016
                 4-Apr-2020 
 ******************************************
 %nprocshared=4
 Will use up to    4 processors via shared memory.
 %mem=1GB
 %oldchk=chk/cyclic_3.chk
 Copying data from "chk/cyclic_3.chk" to current chk file "/scratch/brown/finej/0051_imine_mechanism/ts_631gd/cyclic_complete_2/new_logs_2/Gau-69008.chk"
 IOpt=  2 FromEx=T IUOpen= 4 IOptOp= 5 NList=   0 IFRang= 0 IUIn= 4 IUOut= 2.
 ----------------------------------------------------------------------
 # freq=readfc wb97xd/6-31g(d) scrf=solvent=dichloromethane geom=check 
 temperature=263.15
 ----------------------------------------------------------------------
 1/29=2,38=1,112=263150,172=1/1;
 2/12=2,40=1/2;
 7/8=1,25=11/16;
 99/5=2/99;
 --------------
 Intermediate 3
 --------------
 Structure from the checkpoint file:  "/scratch/brown/finej/0051_imine_mechanism/ts_631gd/cyclic_complete_2/new_logs_2/Gau-69008.chk"
 Charge =  0 Multiplicity = 1
 Redundant internal coordinates found in file.  (old form).
 C,0,2.5088315262,-2.3925639869,2.4900476708
 C,0,3.4608113601,-3.0361740164,3.2696801842
 C,0,4.444521471,-3.8138836383,2.6611921862
 C,0,4.4655784766,-3.9513183405,1.2795728351
 C,0,3.503659895,-3.2993102938,0.5192049683
 C,0,2.5177250389,-2.5015315244,1.0982959099
 C,0,1.441326078,-1.8081756,0.2760155184
 O,0,2.787362366,-2.9958124385,-3.1185647108
 O,0,1.346775754,-4.2384125878,-1.4825015337
 S,0,2.3107067722,-3.1951467989,-1.773289225
 N,0,1.8867738391,-1.7413483527,-1.1288903874
 O,0,3.62377849,-3.4677074516,-0.8647701976
 C,0,2.5420086101,3.9204278057,-0.5435423547
 C,0,3.0584742874,5.134133671,-0.1068209015
 C,0,3.6931436822,5.214042272,1.1318018603
 C,0,3.8138743446,4.0789655267,1.9326984996
 C,0,3.2970109877,2.8630415423,1.4998099732
 O,0,1.3891578578,1.4155526882,-1.2355503622
 C,0,2.6585361103,2.7835517788,0.2592407202
 C,0,2.0140763712,1.5329330524,-0.2050431098
 O,0,2.2176820989,0.4825182144,0.6406531567
 C,0,1.162725346,-0.4107409894,0.7233329092
 N,0,0.0195693043,-0.0590577269,1.1635818985
 C,0,-2.6901300611,1.5413604263,0.3617173982
 N,0,-0.0712173704,1.2683776561,1.5016751384
 C,0,-1.4343615954,3.5265927637,2.1150340873
 C,0,-2.4299493714,0.9761228206,3.1920460679
 P,0,-1.5866014605,1.757072819,1.7875607731
 C,0,-4.080141547,1.4623248283,0.4933247744
 C,0,-4.8791747271,1.3462116371,-0.6399750989
 C,0,-4.2934517234,1.3011731248,-1.9032833076
 C,0,-2.9082962339,1.3726059059,-2.0361766804
 C,0,-2.103683432,1.4940322042,-0.9077093346
 C,0,-2.5762826982,4.3308044567,2.1892849093
 C,0,-2.4486335854,5.6947265743,2.4275739142
 C,0,-1.1835189375,6.2598457259,2.5825512839
 C,0,-0.0459141509,5.4608039293,2.502527118
 C,0,-0.1669731128,4.0938128133,2.272119972
 C,0,-2.848530687,-0.3552807195,3.0654740808
 C,0,-3.4098990255,-1.0144674327,4.1529153361
 C,0,-3.5574341902,-0.3514385589,5.3703110283
 C,0,-3.1386316944,0.9698140808,5.5019028685
 C,0,-2.571295621,1.6334014164,4.4174966913
 H,0,1.7419107643,-1.7822823002,2.9588458038
 H,0,3.4364671144,-2.9298054876,4.3489749543
 H,0,5.1946655422,-4.3188090747,3.2608197113
 H,0,5.2138411624,-4.5549485969,0.7778797144
 H,0,0.4984319247,-2.3614072826,0.3703788473
 H,0,1.2741531796,-1.2048473428,-1.7397142669
 H,0,2.0334222037,3.8429604066,-1.498530201
 H,0,2.9625149162,6.0185576511,-0.7284488863
 H,0,4.0938595366,6.1632686267,1.4746312927
 H,0,4.3066163131,4.1431145033,2.8976105974
 H,0,3.3686077012,1.9803815606,2.1245871853
 H,0,-4.5415588452,1.4785815264,1.476655963
 H,0,-5.9577720139,1.2844851585,-0.5355489775
 H,0,-4.9182993221,1.2055519491,-2.7860529365
 H,0,-2.4525210505,1.331070161,-3.0204758049
 H,0,-1.0223793072,1.543917474,-1.0079359291
 H,0,-3.5648352515,3.8996744666,2.0560606114
 H,0,-3.3356936475,6.3172974481,2.4854473879
 H,0,-1.0865776796,7.3262984712,2.761866091
 H,0,0.9418432653,5.8973906222,2.6136434903
 H,0,0.7127891132,3.4646025532,2.1990545202
 H,0,-2.7363014018,-0.8741461919,2.1180618449
 H,0,-3.7341910974,-2.045138215,4.050139174
 H,0,-3.9997302688,-0.8666669491,6.217409247
 H,0,-3.2530314657,1.486828263,6.4493744848
 H,0,-2.2439923022,2.6626660884,4.527885897
 Recover connectivity data from disk.
                           ----------------------------
                           !    Current Parameters    !
                           ! (Angstroms and Degrees)  !
 --------------------------                            --------------------------
 ! Name  Definition              Value          Derivative Info.                !
 --------------------------------------------------------------------------------
 ! R1    R(1,2)                  1.3886         estimate D2E/DX2                !
 ! R2    R(1,6)                  1.396          estimate D2E/DX2                !
 ! R3    R(1,44)                 1.0865         estimate D2E/DX2                !
 ! R4    R(2,3)                  1.3938         estimate D2E/DX2                !
 ! R5    R(2,45)                 1.0848         estimate D2E/DX2                !
 ! R6    R(3,4)                  1.3886         estimate D2E/DX2                !
 ! R7    R(3,46)                 1.085          estimate D2E/DX2                !
 ! R8    R(4,5)                  1.3887         estimate D2E/DX2                !
 ! R9    R(4,47)                 1.0844         estimate D2E/DX2                !
 ! R10   R(5,6)                  1.3942         estimate D2E/DX2                !
 ! R11   R(5,12)                 1.3993         estimate D2E/DX2                !
 ! R12   R(6,7)                  1.5217         estimate D2E/DX2                !
 ! R13   R(7,11)                 1.4753         estimate D2E/DX2                !
 ! R14   R(7,22)                 1.4935         estimate D2E/DX2                !
 ! R15   R(7,48)                 1.0973         estimate D2E/DX2                !
 ! R16   R(8,10)                 1.4411         estimate D2E/DX2                !
 ! R17   R(9,10)                 1.4499         estimate D2E/DX2                !
 ! R18   R(10,11)                1.6458         estimate D2E/DX2                !
 ! R19   R(10,12)                1.6198         estimate D2E/DX2                !
 ! R20   R(11,49)                1.018          estimate D2E/DX2                !
 ! R21   R(13,14)                1.3894         estimate D2E/DX2                !
 ! R22   R(13,19)                1.3966         estimate D2E/DX2                !
 ! R23   R(13,50)                1.0847         estimate D2E/DX2                !
 ! R24   R(14,15)                1.3941         estimate D2E/DX2                !
 ! R25   R(14,51)                1.0853         estimate D2E/DX2                !
 ! R26   R(15,16)                1.3944         estimate D2E/DX2                !
 ! R27   R(15,52)                1.0859         estimate D2E/DX2                !
 ! R28   R(16,17)                1.3903         estimate D2E/DX2                !
 ! R29   R(16,53)                1.0853         estimate D2E/DX2                !
 ! R30   R(17,19)                1.3975         estimate D2E/DX2                !
 ! R31   R(17,54)                1.0838         estimate D2E/DX2                !
 ! R32   R(18,20)                1.2109         estimate D2E/DX2                !
 ! R33   R(19,20)                1.4815         estimate D2E/DX2                !
 ! R34   R(20,21)                1.3638         estimate D2E/DX2                !
 ! R35   R(21,22)                1.3848         estimate D2E/DX2                !
 ! R36   R(22,23)                1.2745         estimate D2E/DX2                !
 ! R37   R(23,25)                1.3728         estimate D2E/DX2                !
 ! R38   R(24,28)                1.8159         estimate D2E/DX2                !
 ! R39   R(24,29)                1.3985         estimate D2E/DX2                !
 ! R40   R(24,33)                1.3991         estimate D2E/DX2                !
 ! R41   R(25,28)                1.6177         estimate D2E/DX2                !
 ! R42   R(26,28)                1.806          estimate D2E/DX2                !
 ! R43   R(26,34)                1.3987         estimate D2E/DX2                !
 ! R44   R(26,38)                1.3974         estimate D2E/DX2                !
 ! R45   R(27,28)                1.8149         estimate D2E/DX2                !
 ! R46   R(27,39)                1.4014         estimate D2E/DX2                !
 ! R47   R(27,43)                1.3978         estimate D2E/DX2                !
 ! R48   R(29,30)                1.3915         estimate D2E/DX2                !
 ! R49   R(29,55)                1.0863         estimate D2E/DX2                !
 ! R50   R(30,31)                1.3932         estimate D2E/DX2                !
 ! R51   R(30,56)                1.0854         estimate D2E/DX2                !
 ! R52   R(31,32)                1.3933         estimate D2E/DX2                !
 ! R53   R(31,57)                1.0858         estimate D2E/DX2                !
 ! R54   R(32,33)                1.3913         estimate D2E/DX2                !
 ! R55   R(32,58)                1.0855         estimate D2E/DX2                !
 ! R56   R(33,59)                1.0871         estimate D2E/DX2                !
 ! R57   R(34,35)                1.3905         estimate D2E/DX2                !
 ! R58   R(34,60)                1.0867         estimate D2E/DX2                !
 ! R59   R(35,36)                1.3942         estimate D2E/DX2                !
 ! R60   R(35,61)                1.0853         estimate D2E/DX2                !
 ! R61   R(36,37)                1.3925         estimate D2E/DX2                !
 ! R62   R(36,62)                1.0858         estimate D2E/DX2                !
 ! R63   R(37,38)                1.3915         estimate D2E/DX2                !
 ! R64   R(37,63)                1.0856         estimate D2E/DX2                !
 ! R65   R(38,64)                1.0841         estimate D2E/DX2                !
 ! R66   R(39,40)                1.39           estimate D2E/DX2                !
 ! R67   R(39,65)                1.086          estimate D2E/DX2                !
 ! R68   R(40,41)                1.3941         estimate D2E/DX2                !
 ! R69   R(40,66)                1.0854         estimate D2E/DX2                !
 ! R70   R(41,42)                1.3923         estimate D2E/DX2                !
 ! R71   R(41,67)                1.0857         estimate D2E/DX2                !
 ! R72   R(42,43)                1.3922         estimate D2E/DX2                !
 ! R73   R(42,68)                1.0854         estimate D2E/DX2                !
 ! R74   R(43,69)                1.0857         estimate D2E/DX2                !
 ! A1    A(2,1,6)              121.2764         estimate D2E/DX2                !
 ! A2    A(2,1,44)             120.1333         estimate D2E/DX2                !
 ! A3    A(6,1,44)             118.5881         estimate D2E/DX2                !
 ! A4    A(1,2,3)              119.8241         estimate D2E/DX2                !
 ! A5    A(1,2,45)             119.8517         estimate D2E/DX2                !
 ! A6    A(3,2,45)             120.3241         estimate D2E/DX2                !
 ! A7    A(2,3,4)              120.0191         estimate D2E/DX2                !
 ! A8    A(2,3,46)             120.4204         estimate D2E/DX2                !
 ! A9    A(4,3,46)             119.5599         estimate D2E/DX2                !
 ! A10   A(3,4,5)              119.1964         estimate D2E/DX2                !
 ! A11   A(3,4,47)             121.7268         estimate D2E/DX2                !
 ! A12   A(5,4,47)             119.0768         estimate D2E/DX2                !
 ! A13   A(4,5,6)              122.0767         estimate D2E/DX2                !
 ! A14   A(4,5,12)             115.1859         estimate D2E/DX2                !
 ! A15   A(6,5,12)             122.7073         estimate D2E/DX2                !
 ! A16   A(1,6,5)              117.5965         estimate D2E/DX2                !
 ! A17   A(1,6,7)              119.9103         estimate D2E/DX2                !
 ! A18   A(5,6,7)              122.4459         estimate D2E/DX2                !
 ! A19   A(6,7,11)             108.762          estimate D2E/DX2                !
 ! A20   A(6,7,22)             113.3564         estimate D2E/DX2                !
 ! A21   A(6,7,48)             109.3686         estimate D2E/DX2                !
 ! A22   A(11,7,22)            107.4065         estimate D2E/DX2                !
 ! A23   A(11,7,48)            111.3569         estimate D2E/DX2                !
 ! A24   A(22,7,48)            106.6008         estimate D2E/DX2                !
 ! A25   A(8,10,9)             120.4419         estimate D2E/DX2                !
 ! A26   A(8,10,11)            109.1799         estimate D2E/DX2                !
 ! A27   A(8,10,12)            106.1848         estimate D2E/DX2                !
 ! A28   A(9,10,11)            112.6962         estimate D2E/DX2                !
 ! A29   A(9,10,12)            107.7803         estimate D2E/DX2                !
 ! A30   A(11,10,12)            97.9228         estimate D2E/DX2                !
 ! A31   A(7,11,10)            114.2437         estimate D2E/DX2                !
 ! A32   A(7,11,49)            114.4291         estimate D2E/DX2                !
 ! A33   A(10,11,49)           112.6832         estimate D2E/DX2                !
 ! A34   A(5,12,10)            117.7024         estimate D2E/DX2                !
 ! A35   A(14,13,19)           119.9592         estimate D2E/DX2                !
 ! A36   A(14,13,50)           120.8891         estimate D2E/DX2                !
 ! A37   A(19,13,50)           119.146          estimate D2E/DX2                !
 ! A38   A(13,14,15)           119.9054         estimate D2E/DX2                !
 ! A39   A(13,14,51)           119.931          estimate D2E/DX2                !
 ! A40   A(15,14,51)           120.163          estimate D2E/DX2                !
 ! A41   A(14,15,16)           120.2039         estimate D2E/DX2                !
 ! A42   A(14,15,52)           119.9093         estimate D2E/DX2                !
 ! A43   A(16,15,52)           119.8868         estimate D2E/DX2                !
 ! A44   A(15,16,17)           120.0586         estimate D2E/DX2                !
 ! A45   A(15,16,53)           120.1207         estimate D2E/DX2                !
 ! A46   A(17,16,53)           119.82           estimate D2E/DX2                !
 ! A47   A(16,17,19)           119.7348         estimate D2E/DX2                !
 ! A48   A(16,17,54)           120.5452         estimate D2E/DX2                !
 ! A49   A(19,17,54)           119.7099         estimate D2E/DX2                !
 ! A50   A(13,19,17)           120.1378         estimate D2E/DX2                !
 ! A51   A(13,19,20)           118.0811         estimate D2E/DX2                !
 ! A52   A(17,19,20)           121.6645         estimate D2E/DX2                !
 ! A53   A(18,20,19)           124.9612         estimate D2E/DX2                !
 ! A54   A(18,20,21)           122.0124         estimate D2E/DX2                !
 ! A55   A(19,20,21)           113.0097         estimate D2E/DX2                !
 ! A56   A(20,21,22)           114.841          estimate D2E/DX2                !
 ! A57   A(7,22,21)            116.3314         estimate D2E/DX2                !
 ! A58   A(7,22,23)            121.9362         estimate D2E/DX2                !
 ! A59   A(21,22,23)           121.7315         estimate D2E/DX2                !
 ! A60   A(22,23,25)           114.2808         estimate D2E/DX2                !
 ! A61   A(28,24,29)           122.4703         estimate D2E/DX2                !
 ! A62   A(28,24,33)           117.4978         estimate D2E/DX2                !
 ! A63   A(29,24,33)           120.0057         estimate D2E/DX2                !
 ! A64   A(23,25,28)           113.4269         estimate D2E/DX2                !
 ! A65   A(28,26,34)           120.2767         estimate D2E/DX2                !
 ! A66   A(28,26,38)           119.6404         estimate D2E/DX2                !
 ! A67   A(34,26,38)           120.0743         estimate D2E/DX2                !
 ! A68   A(28,27,39)           118.537          estimate D2E/DX2                !
 ! A69   A(28,27,43)           121.5423         estimate D2E/DX2                !
 ! A70   A(39,27,43)           119.7184         estimate D2E/DX2                !
 ! A71   A(24,28,25)           113.2428         estimate D2E/DX2                !
 ! A72   A(24,28,26)           108.0594         estimate D2E/DX2                !
 ! A73   A(24,28,27)           105.9112         estimate D2E/DX2                !
 ! A74   A(25,28,26)           104.4225         estimate D2E/DX2                !
 ! A75   A(25,28,27)           116.2361         estimate D2E/DX2                !
 ! A76   A(26,28,27)           108.6911         estimate D2E/DX2                !
 ! A77   A(24,29,30)           119.9219         estimate D2E/DX2                !
 ! A78   A(24,29,55)           120.4325         estimate D2E/DX2                !
 ! A79   A(30,29,55)           119.6413         estimate D2E/DX2                !
 ! A80   A(29,30,31)           119.9859         estimate D2E/DX2                !
 ! A81   A(29,30,56)           119.8024         estimate D2E/DX2                !
 ! A82   A(31,30,56)           120.2105         estimate D2E/DX2                !
 ! A83   A(30,31,32)           120.1831         estimate D2E/DX2                !
 ! A84   A(30,31,57)           119.877          estimate D2E/DX2                !
 ! A85   A(32,31,57)           119.9393         estimate D2E/DX2                !
 ! A86   A(31,32,33)           120.1357         estimate D2E/DX2                !
 ! A87   A(31,32,58)           120.1279         estimate D2E/DX2                !
 ! A88   A(33,32,58)           119.7362         estimate D2E/DX2                !
 ! A89   A(24,33,32)           119.7661         estimate D2E/DX2                !
 ! A90   A(24,33,59)           119.9349         estimate D2E/DX2                !
 ! A91   A(32,33,59)           120.2971         estimate D2E/DX2                !
 ! A92   A(26,34,35)           119.8784         estimate D2E/DX2                !
 ! A93   A(26,34,60)           120.5366         estimate D2E/DX2                !
 ! A94   A(35,34,60)           119.5839         estimate D2E/DX2                !
 ! A95   A(34,35,36)           119.9962         estimate D2E/DX2                !
 ! A96   A(34,35,61)           119.7891         estimate D2E/DX2                !
 ! A97   A(36,35,61)           120.2133         estimate D2E/DX2                !
 ! A98   A(35,36,37)           120.1541         estimate D2E/DX2                !
 ! A99   A(35,36,62)           119.8342         estimate D2E/DX2                !
 ! A100  A(37,36,62)           120.0112         estimate D2E/DX2                !
 ! A101  A(36,37,38)           120.1417         estimate D2E/DX2                !
 ! A102  A(36,37,63)           120.4414         estimate D2E/DX2                !
 ! A103  A(38,37,63)           119.4161         estimate D2E/DX2                !
 ! A104  A(26,38,37)           119.7534         estimate D2E/DX2                !
 ! A105  A(26,38,64)           119.5288         estimate D2E/DX2                !
 ! A106  A(37,38,64)           120.7123         estimate D2E/DX2                !
 ! A107  A(27,39,40)           120.034          estimate D2E/DX2                !
 ! A108  A(27,39,65)           120.122          estimate D2E/DX2                !
 ! A109  A(40,39,65)           119.844          estimate D2E/DX2                !
 ! A110  A(39,40,41)           120.0242         estimate D2E/DX2                !
 ! A111  A(39,40,66)           119.7961         estimate D2E/DX2                !
 ! A112  A(41,40,66)           120.1797         estimate D2E/DX2                !
 ! A113  A(40,41,42)           120.1357         estimate D2E/DX2                !
 ! A114  A(40,41,67)           119.9193         estimate D2E/DX2                !
 ! A115  A(42,41,67)           119.945          estimate D2E/DX2                !
 ! A116  A(41,42,43)           120.0862         estimate D2E/DX2                !
 ! A117  A(41,42,68)           120.188          estimate D2E/DX2                !
 ! A118  A(43,42,68)           119.7258         estimate D2E/DX2                !
 ! A119  A(27,43,42)           119.9984         estimate D2E/DX2                !
 ! A120  A(27,43,69)           120.2956         estimate D2E/DX2                !
 ! A121  A(42,43,69)           119.7055         estimate D2E/DX2                !
 ! D1    D(6,1,2,3)             -0.3269         estimate D2E/DX2                !
 ! D2    D(6,1,2,45)           179.5586         estimate D2E/DX2                !
 ! D3    D(44,1,2,3)          -179.7845         estimate D2E/DX2                !
 ! D4    D(44,1,2,45)            0.101          estimate D2E/DX2                !
 ! D5    D(2,1,6,5)              1.0877         estimate D2E/DX2                !
 ! D6    D(2,1,6,7)            178.6475         estimate D2E/DX2                !
 ! D7    D(44,1,6,5)          -179.4466         estimate D2E/DX2                !
 ! D8    D(44,1,6,7)            -1.8868         estimate D2E/DX2                !
 ! D9    D(1,2,3,4)             -0.4495         estimate D2E/DX2                !
 ! D10   D(1,2,3,46)           179.8331         estimate D2E/DX2                !
 ! D11   D(45,2,3,4)           179.6656         estimate D2E/DX2                !
 ! D12   D(45,2,3,46)           -0.0519         estimate D2E/DX2                !
 ! D13   D(2,3,4,5)              0.4232         estimate D2E/DX2                !
 ! D14   D(2,3,4,47)          -179.5691         estimate D2E/DX2                !
 ! D15   D(46,3,4,5)          -179.8569         estimate D2E/DX2                !
 ! D16   D(46,3,4,47)            0.1508         estimate D2E/DX2                !
 ! D17   D(3,4,5,6)              0.3812         estimate D2E/DX2                !
 ! D18   D(3,4,5,12)           178.4349         estimate D2E/DX2                !
 ! D19   D(47,4,5,6)          -179.6262         estimate D2E/DX2                !
 ! D20   D(47,4,5,12)           -1.5726         estimate D2E/DX2                !
 ! D21   D(4,5,6,1)             -1.1213         estimate D2E/DX2                !
 ! D22   D(4,5,6,7)           -178.6149         estimate D2E/DX2                !
 ! D23   D(12,5,6,1)          -179.028          estimate D2E/DX2                !
 ! D24   D(12,5,6,7)             3.4784         estimate D2E/DX2                !
 ! D25   D(4,5,12,10)          159.3545         estimate D2E/DX2                !
 ! D26   D(6,5,12,10)          -22.6055         estimate D2E/DX2                !
 ! D27   D(1,6,7,11)           163.5951         estimate D2E/DX2                !
 ! D28   D(1,6,7,22)            44.2002         estimate D2E/DX2                !
 ! D29   D(1,6,7,48)           -74.5951         estimate D2E/DX2                !
 ! D30   D(5,6,7,11)           -18.9675         estimate D2E/DX2                !
 ! D31   D(5,6,7,22)          -138.3625         estimate D2E/DX2                !
 ! D32   D(5,6,7,48)           102.8423         estimate D2E/DX2                !
 ! D33   D(6,7,11,10)           54.1854         estimate D2E/DX2                !
 ! D34   D(6,7,11,49)         -173.8185         estimate D2E/DX2                !
 ! D35   D(22,7,11,10)         177.2297         estimate D2E/DX2                !
 ! D36   D(22,7,11,49)         -50.7742         estimate D2E/DX2                !
 ! D37   D(48,7,11,10)         -66.4058         estimate D2E/DX2                !
 ! D38   D(48,7,11,49)          65.5903         estimate D2E/DX2                !
 ! D39   D(6,7,22,21)           61.8205         estimate D2E/DX2                !
 ! D40   D(6,7,22,23)         -117.8399         estimate D2E/DX2                !
 ! D41   D(11,7,22,21)         -58.348          estimate D2E/DX2                !
 ! D42   D(11,7,22,23)         121.9916         estimate D2E/DX2                !
 ! D43   D(48,7,22,21)        -177.8016         estimate D2E/DX2                !
 ! D44   D(48,7,22,23)           2.538          estimate D2E/DX2                !
 ! D45   D(8,10,11,7)         -177.2176         estimate D2E/DX2                !
 ! D46   D(8,10,11,49)          49.953          estimate D2E/DX2                !
 ! D47   D(9,10,11,7)           46.1513         estimate D2E/DX2                !
 ! D48   D(9,10,11,49)         -86.678          estimate D2E/DX2                !
 ! D49   D(12,10,11,7)         -66.9521         estimate D2E/DX2                !
 ! D50   D(12,10,11,49)        160.2185         estimate D2E/DX2                !
 ! D51   D(8,10,12,5)          161.3075         estimate D2E/DX2                !
 ! D52   D(9,10,12,5)          -68.3682         estimate D2E/DX2                !
 ! D53   D(11,10,12,5)          48.6152         estimate D2E/DX2                !
 ! D54   D(19,13,14,15)          0.0561         estimate D2E/DX2                !
 ! D55   D(19,13,14,51)       -179.6408         estimate D2E/DX2                !
 ! D56   D(50,13,14,15)        179.1744         estimate D2E/DX2                !
 ! D57   D(50,13,14,51)         -0.5224         estimate D2E/DX2                !
 ! D58   D(14,13,19,17)         -0.1782         estimate D2E/DX2                !
 ! D59   D(14,13,19,20)        175.9619         estimate D2E/DX2                !
 ! D60   D(50,13,19,17)       -179.3119         estimate D2E/DX2                !
 ! D61   D(50,13,19,20)         -3.1718         estimate D2E/DX2                !
 ! D62   D(13,14,15,16)          0.1389         estimate D2E/DX2                !
 ! D63   D(13,14,15,52)       -179.7956         estimate D2E/DX2                !
 ! D64   D(51,14,15,16)        179.8351         estimate D2E/DX2                !
 ! D65   D(51,14,15,52)         -0.0995         estimate D2E/DX2                !
 ! D66   D(14,15,16,17)         -0.2124         estimate D2E/DX2                !
 ! D67   D(14,15,16,53)       -179.8856         estimate D2E/DX2                !
 ! D68   D(52,15,16,17)        179.7222         estimate D2E/DX2                !
 ! D69   D(52,15,16,53)          0.0489         estimate D2E/DX2                !
 ! D70   D(15,16,17,19)          0.0899         estimate D2E/DX2                !
 ! D71   D(15,16,17,54)       -178.7521         estimate D2E/DX2                !
 ! D72   D(53,16,17,19)        179.7641         estimate D2E/DX2                !
 ! D73   D(53,16,17,54)          0.9221         estimate D2E/DX2                !
 ! D74   D(16,17,19,13)          0.1049         estimate D2E/DX2                !
 ! D75   D(16,17,19,20)       -175.8937         estimate D2E/DX2                !
 ! D76   D(54,17,19,13)        178.9567         estimate D2E/DX2                !
 ! D77   D(54,17,19,20)          2.958          estimate D2E/DX2                !
 ! D78   D(13,19,20,18)          0.0734         estimate D2E/DX2                !
 ! D79   D(13,19,20,21)        178.6088         estimate D2E/DX2                !
 ! D80   D(17,19,20,18)        176.1514         estimate D2E/DX2                !
 ! D81   D(17,19,20,21)         -5.3132         estimate D2E/DX2                !
 ! D82   D(18,20,21,22)        -35.3552         estimate D2E/DX2                !
 ! D83   D(19,20,21,22)        146.0604         estimate D2E/DX2                !
 ! D84   D(20,21,22,7)         117.5708         estimate D2E/DX2                !
 ! D85   D(20,21,22,23)        -62.768          estimate D2E/DX2                !
 ! D86   D(7,22,23,25)        -178.5664         estimate D2E/DX2                !
 ! D87   D(21,22,23,25)          1.7914         estimate D2E/DX2                !
 ! D88   D(22,23,25,28)        169.0406         estimate D2E/DX2                !
 ! D89   D(29,24,28,25)        158.0076         estimate D2E/DX2                !
 ! D90   D(29,24,28,26)        -86.8317         estimate D2E/DX2                !
 ! D91   D(29,24,28,27)         29.4926         estimate D2E/DX2                !
 ! D92   D(33,24,28,25)        -23.8566         estimate D2E/DX2                !
 ! D93   D(33,24,28,26)         91.304          estimate D2E/DX2                !
 ! D94   D(33,24,28,27)       -152.3716         estimate D2E/DX2                !
 ! D95   D(28,24,29,30)        177.6332         estimate D2E/DX2                !
 ! D96   D(28,24,29,55)         -3.1252         estimate D2E/DX2                !
 ! D97   D(33,24,29,30)         -0.4572         estimate D2E/DX2                !
 ! D98   D(33,24,29,55)        178.7844         estimate D2E/DX2                !
 ! D99   D(28,24,33,32)       -177.9767         estimate D2E/DX2                !
 ! D100  D(28,24,33,59)          2.5273         estimate D2E/DX2                !
 ! D101  D(29,24,33,32)          0.207          estimate D2E/DX2                !
 ! D102  D(29,24,33,59)       -179.2889         estimate D2E/DX2                !
 ! D103  D(23,25,28,24)        -59.7325         estimate D2E/DX2                !
 ! D104  D(23,25,28,26)       -177.0433         estimate D2E/DX2                !
 ! D105  D(23,25,28,27)         63.2443         estimate D2E/DX2                !
 ! D106  D(34,26,28,24)         48.6467         estimate D2E/DX2                !
 ! D107  D(34,26,28,25)        169.4733         estimate D2E/DX2                !
 ! D108  D(34,26,28,27)        -65.8549         estimate D2E/DX2                !
 ! D109  D(38,26,28,24)       -130.2907         estimate D2E/DX2                !
 ! D110  D(38,26,28,25)         -9.4642         estimate D2E/DX2                !
 ! D111  D(38,26,28,27)        115.2077         estimate D2E/DX2                !
 ! D112  D(28,26,34,35)       -179.311          estimate D2E/DX2                !
 ! D113  D(28,26,34,60)          0.3099         estimate D2E/DX2                !
 ! D114  D(38,26,34,35)         -0.3782         estimate D2E/DX2                !
 ! D115  D(38,26,34,60)        179.2427         estimate D2E/DX2                !
 ! D116  D(28,26,38,37)        178.9406         estimate D2E/DX2                !
 ! D117  D(28,26,38,64)         -0.2054         estimate D2E/DX2                !
 ! D118  D(34,26,38,37)          0.001          estimate D2E/DX2                !
 ! D119  D(34,26,38,64)       -179.145          estimate D2E/DX2                !
 ! D120  D(39,27,28,24)         54.0269         estimate D2E/DX2                !
 ! D121  D(39,27,28,25)        -72.6981         estimate D2E/DX2                !
 ! D122  D(39,27,28,26)        169.9231         estimate D2E/DX2                !
 ! D123  D(43,27,28,24)       -131.1583         estimate D2E/DX2                !
 ! D124  D(43,27,28,25)        102.1168         estimate D2E/DX2                !
 ! D125  D(43,27,28,26)        -15.262          estimate D2E/DX2                !
 ! D126  D(28,27,39,40)        175.3446         estimate D2E/DX2                !
 ! D127  D(28,27,39,65)         -4.7202         estimate D2E/DX2                !
 ! D128  D(43,27,39,40)          0.4327         estimate D2E/DX2                !
 ! D129  D(43,27,39,65)       -179.6321         estimate D2E/DX2                !
 ! D130  D(28,27,43,42)       -175.4188         estimate D2E/DX2                !
 ! D131  D(28,27,43,69)          4.83           estimate D2E/DX2                !
 ! D132  D(39,27,43,42)         -0.664          estimate D2E/DX2                !
 ! D133  D(39,27,43,69)        179.5847         estimate D2E/DX2                !
 ! D134  D(24,29,30,31)          0.3655         estimate D2E/DX2                !
 ! D135  D(24,29,30,56)        179.9677         estimate D2E/DX2                !
 ! D136  D(55,29,30,31)       -178.8821         estimate D2E/DX2                !
 ! D137  D(55,29,30,56)          0.7201         estimate D2E/DX2                !
 ! D138  D(29,30,31,32)         -0.0244         estimate D2E/DX2                !
 ! D139  D(29,30,31,57)        179.6946         estimate D2E/DX2                !
 ! D140  D(56,30,31,32)       -179.625          estimate D2E/DX2                !
 ! D141  D(56,30,31,57)          0.094          estimate D2E/DX2                !
 ! D142  D(30,31,32,33)         -0.2267         estimate D2E/DX2                !
 ! D143  D(30,31,32,58)        179.6102         estimate D2E/DX2                !
 ! D144  D(57,31,32,33)       -179.9455         estimate D2E/DX2                !
 ! D145  D(57,31,32,58)         -0.1086         estimate D2E/DX2                !
 ! D146  D(31,32,33,24)          0.1343         estimate D2E/DX2                !
 ! D147  D(31,32,33,59)        179.6284         estimate D2E/DX2                !
 ! D148  D(58,32,33,24)       -179.7032         estimate D2E/DX2                !
 ! D149  D(58,32,33,59)         -0.2091         estimate D2E/DX2                !
 ! D150  D(26,34,35,36)          0.4548         estimate D2E/DX2                !
 ! D151  D(26,34,35,61)       -179.9665         estimate D2E/DX2                !
 ! D152  D(60,34,35,36)       -179.1697         estimate D2E/DX2                !
 ! D153  D(60,34,35,61)          0.409          estimate D2E/DX2                !
 ! D154  D(34,35,36,37)         -0.1557         estimate D2E/DX2                !
 ! D155  D(34,35,36,62)        179.5884         estimate D2E/DX2                !
 ! D156  D(61,35,36,37)       -179.7325         estimate D2E/DX2                !
 ! D157  D(61,35,36,62)          0.0115         estimate D2E/DX2                !
 ! D158  D(35,36,37,38)         -0.2234         estimate D2E/DX2                !
 ! D159  D(35,36,37,63)        179.4509         estimate D2E/DX2                !
 ! D160  D(62,36,37,38)       -179.967          estimate D2E/DX2                !
 ! D161  D(62,36,37,63)         -0.2927         estimate D2E/DX2                !
 ! D162  D(36,37,38,26)          0.2993         estimate D2E/DX2                !
 ! D163  D(36,37,38,64)        179.435          estimate D2E/DX2                !
 ! D164  D(63,37,38,26)       -179.3783         estimate D2E/DX2                !
 ! D165  D(63,37,38,64)         -0.2426         estimate D2E/DX2                !
 ! D166  D(27,39,40,41)          0.0237         estimate D2E/DX2                !
 ! D167  D(27,39,40,66)        179.9042         estimate D2E/DX2                !
 ! D168  D(65,39,40,41)       -179.9117         estimate D2E/DX2                !
 ! D169  D(65,39,40,66)         -0.0312         estimate D2E/DX2                !
 ! D170  D(39,40,41,42)         -0.2508         estimate D2E/DX2                !
 ! D171  D(39,40,41,67)        179.7565         estimate D2E/DX2                !
 ! D172  D(66,40,41,42)        179.8691         estimate D2E/DX2                !
 ! D173  D(66,40,41,67)         -0.1236         estimate D2E/DX2                !
 ! D174  D(40,41,42,43)          0.0187         estimate D2E/DX2                !
 ! D175  D(40,41,42,68)       -179.9957         estimate D2E/DX2                !
 ! D176  D(67,41,42,43)       -179.9886         estimate D2E/DX2                !
 ! D177  D(67,41,42,68)         -0.003          estimate D2E/DX2                !
 ! D178  D(41,42,43,27)          0.4399         estimate D2E/DX2                !
 ! D179  D(41,42,43,69)       -179.8074         estimate D2E/DX2                !
 ! D180  D(68,42,43,27)       -179.5457         estimate D2E/DX2                !
 ! D181  D(68,42,43,69)          0.2069         estimate D2E/DX2                !
 --------------------------------------------------------------------------------
 Stoichiometry    C33H26N3O5PS
 Framework group  C1[X(C33H26N3O5PS)]
 Deg. of freedom   201
 Full point group                 C1      NOp   1
 Largest Abelian subgroup         C1      NOp   1
 Largest concise Abelian subgroup C1      NOp   1
                         Standard orientation:                         
 ---------------------------------------------------------------------
 Center     Atomic      Atomic             Coordinates (Angstroms)
 Number     Number       Type             X           Y           Z
 ---------------------------------------------------------------------
      1          6           0       -3.198377   -0.607189   -2.395846
      2          6           0       -4.047716   -0.445563   -3.482504
      3          6           0       -5.393028   -0.147537   -3.272522
      4          6           0       -5.883166   -0.022141   -1.979369
      5          6           0       -5.016270   -0.188326   -0.907252
      6          6           0       -3.662690   -0.470446   -1.086403
      7          6           0       -2.711753   -0.684535    0.082103
      8          8           0       -5.340052    0.013931    2.793129
      9          8           0       -4.934376   -2.105706    1.513045
     10         16           0       -4.830322   -0.664167    1.628200
     11          7           0       -3.316853   -0.108367    1.298053
     12          8           0       -5.590748   -0.010165    0.356238
     13          6           0        0.640809    4.032970    1.180075
     14          6           0        1.343233    5.152209    0.750600
     15          6           0        1.349856    5.492098   -0.601364
     16          6           0        0.651284    4.713906   -1.523767
     17          6           0       -0.051500    3.592351   -1.098070
     18          8           0       -0.698710    1.628648    1.892301
     19          6           0       -0.056009    3.250222    0.256887
     20          6           0       -0.714836    2.016387    0.745285
     21          8           0       -1.389238    1.348660   -0.234181
     22          6           0       -1.382727   -0.030419   -0.108565
     23          7           0       -0.301423   -0.703069   -0.159855
     24          6           0        2.329296   -1.522209    1.559192
     25          7           0        0.830865    0.058841   -0.308351
     26          6           0        3.508474    0.459964   -0.249883
     27          6           0        2.519210   -2.115869   -1.270905
     28         15           0        2.200085   -0.774689   -0.090613
     29          6           0        3.158562   -2.616506    1.824772
     30          6           0        3.254450   -3.116598    3.119769
     31          6           0        2.518823   -2.531758    4.148294
     32          6           0        1.686545   -1.445876    3.884490
     33          6           0        1.589865   -0.937462    2.593075
     34          6           0        4.825333    0.140676    0.096805
     35          6           0        5.823668    1.101965   -0.015484
     36          6           0        5.509428    2.384157   -0.463961
     37          6           0        4.197483    2.704526   -0.803343
     38          6           0        3.194972    1.744911   -0.700787
     39          6           0        1.753701   -3.285985   -1.177673
     40          6           0        1.904177   -4.293059   -2.123901
     41          6           0        2.817176   -4.140079   -3.166234
     42          6           0        3.576382   -2.977244   -3.265430
     43          6           0        3.426336   -1.963309   -2.323317
     44          1           0       -2.148123   -0.836103   -2.553793
     45          1           0       -3.660727   -0.549986   -4.490531
     46          1           0       -6.064635   -0.016567   -4.114549
     47          1           0       -6.925982    0.202222   -1.784027
     48          1           0       -2.518509   -1.757981    0.202063
     49          1           0       -2.709170   -0.115625    2.114701
     50          1           0        0.635741    3.746259    2.226227
     51          1           0        1.889356    5.756816    1.467563
     52          1           0        1.901526    6.364898   -0.937543
     53          1           0        0.658881    4.978707   -2.576282
     54          1           0       -0.580524    2.970524   -1.810830
     55          1           0        3.720584   -3.088215    1.023690
     56          1           0        3.898260   -3.966329    3.323614
     57          1           0        2.591177   -2.926525    5.157146
     58          1           0        1.108965   -0.994895    4.685314
     59          1           0        0.936751   -0.094180    2.383146
     60          1           0        5.075337   -0.852546    0.459936
     61          1           0        6.845079    0.852487    0.253404
     62          1           0        6.289884    3.134697   -0.544273
     63          1           0        3.946010    3.703985   -1.144608
     64          1           0        2.168983    1.986836   -0.953860
     65          1           0        1.042630   -3.408844   -0.366075
     66          1           0        1.310435   -5.198366   -2.047093
     67          1           0        2.936174   -4.929398   -3.902085
     68          1           0        4.287426   -2.857215   -4.076666
     69          1           0        4.019257   -1.057822   -2.408390
 ---------------------------------------------------------------------
 Rotational constants (GHZ):           0.0949015           0.0554402           0.0491496
 Electric field and nuclear coordinate derivatives read from checkpoint file.
 Rotating derivatives to standard orientation.
 Full mass-weighted force constant matrix:
 Low frequencies ---   -3.3968    0.0073    0.0118    0.0130    5.1625    7.2973
 Low frequencies ---   13.4381   13.7873   20.7695
 Diagonal vibrational polarizability:
      174.8057832     239.0792829     107.4338174
 Harmonic frequencies (cm**-1), IR intensities (KM/Mole), Raman scattering
 activities (A**4/AMU), depolarization ratios for plane and unpolarized
 incident light, reduced masses (AMU), force constants (mDyne/A),
 and normal coordinates:
                      1                      2                      3
                      A                      A                      A
 Frequencies --     13.3295                13.7046                20.6424
 Red. masses --      6.8719                 6.4291                 5.1391
 Frc consts  --      0.0007                 0.0007                 0.0013
 IR Inten    --      0.6650                 0.1860                 0.2553
  Atom  AN      X      Y      Z        X      Y      Z        X      Y      Z
     1   6    -0.03   0.18  -0.04    -0.06   0.04   0.01    -0.02   0.03  -0.03
     2   6    -0.04   0.28  -0.01    -0.09   0.05   0.04    -0.04   0.02  -0.01
     3   6    -0.03   0.27   0.02    -0.09   0.04   0.08    -0.05  -0.02   0.01
     4   6    -0.02   0.17   0.04    -0.05   0.02   0.10    -0.03  -0.05   0.02
     5   6    -0.01   0.07   0.01    -0.02   0.00   0.07    -0.00  -0.04   0.01
     6   6    -0.02   0.08  -0.02    -0.02   0.01   0.03     0.00   0.01  -0.02
     7   6    -0.01  -0.02  -0.05     0.01   0.00  -0.00     0.03   0.02  -0.04
     8   8     0.02  -0.22   0.03     0.08  -0.04   0.08     0.07  -0.04   0.01
     9   8     0.00  -0.12  -0.14     0.06  -0.02   0.05     0.11  -0.04   0.02
    10  16     0.01  -0.13  -0.03     0.05  -0.03   0.06     0.06  -0.03   0.01
    11   7     0.01  -0.11   0.00     0.04  -0.01   0.02     0.04   0.01  -0.03
    12   8    -0.00  -0.03   0.03     0.01  -0.02   0.09     0.01  -0.07   0.02
    13   6     0.04  -0.03  -0.03     0.01   0.03  -0.13    -0.10   0.07   0.03
    14   6     0.04  -0.04  -0.04     0.01   0.02  -0.16    -0.11   0.09   0.06
    15   6     0.02  -0.04  -0.04     0.00  -0.01  -0.16    -0.05   0.08   0.06
    16   6    -0.01  -0.02  -0.03    -0.00  -0.04  -0.14     0.01   0.06   0.03
    17   6    -0.02  -0.02  -0.01     0.00  -0.03  -0.11     0.02   0.05  -0.00
    18   8     0.02  -0.02  -0.00     0.02   0.04  -0.06    -0.04   0.02  -0.04
    19   6     0.01  -0.02  -0.02     0.00   0.01  -0.10    -0.04   0.05  -0.00
    20   6     0.01  -0.02  -0.00     0.01   0.02  -0.07    -0.02   0.03  -0.03
    21   8    -0.01  -0.01   0.00    -0.00   0.00  -0.05     0.02   0.03  -0.06
    22   6    -0.01  -0.01  -0.01     0.00   0.00  -0.03     0.02   0.03  -0.05
    23   7    -0.01  -0.01  -0.01     0.01   0.01  -0.02     0.02   0.03  -0.04
    24   6     0.01   0.03   0.03    -0.05  -0.03  -0.01    -0.03   0.02  -0.00
    25   7    -0.01  -0.01   0.00     0.01   0.00  -0.03     0.03   0.02  -0.04
    26   6    -0.01   0.00  -0.02     0.01   0.01   0.06     0.04  -0.03  -0.01
    27   6     0.00  -0.02   0.04     0.04   0.02  -0.02    -0.01  -0.02   0.00
    28  15    -0.00   0.00   0.01     0.00   0.00  -0.00     0.01  -0.00  -0.01
    29   6     0.02   0.05   0.05    -0.07  -0.04  -0.01    -0.03   0.02   0.03
    30   6     0.03   0.08   0.06    -0.12  -0.07  -0.02    -0.06   0.04   0.04
    31   6     0.03   0.09   0.05    -0.15  -0.09  -0.03    -0.08   0.06   0.02
    32   6     0.02   0.08   0.03    -0.12  -0.07  -0.03    -0.07   0.06  -0.02
    33   6     0.01   0.05   0.02    -0.08  -0.04  -0.02    -0.05   0.04  -0.03
    34   6    -0.01   0.02  -0.01    -0.01   0.00   0.12     0.06  -0.11  -0.14
    35   6    -0.01   0.02  -0.03    -0.00   0.01   0.17     0.08  -0.14  -0.12
    36   6    -0.02   0.01  -0.07     0.01   0.01   0.16     0.09  -0.08   0.03
    37   6    -0.02  -0.01  -0.08     0.03   0.01   0.11     0.08  -0.00   0.16
    38   6    -0.02  -0.01  -0.05     0.03   0.01   0.05     0.05   0.02   0.14
    39   6     0.02  -0.03   0.07     0.02   0.03  -0.08     0.03  -0.04   0.06
    40   6     0.02  -0.05   0.10     0.05   0.05  -0.09     0.00  -0.05   0.07
    41   6     0.01  -0.06   0.09     0.10   0.06  -0.04    -0.06  -0.04   0.02
    42   6    -0.00  -0.06   0.06     0.12   0.05   0.02    -0.10  -0.02  -0.04
    43   6    -0.01  -0.04   0.03     0.09   0.03   0.03    -0.07  -0.01  -0.05
    44   1    -0.03   0.19  -0.06    -0.07   0.04  -0.02    -0.01   0.07  -0.05
    45   1    -0.05   0.36  -0.03    -0.12   0.07   0.02    -0.06   0.04  -0.02
    46   1    -0.04   0.35   0.04    -0.11   0.05   0.10    -0.06  -0.03   0.03
    47   1    -0.02   0.16   0.06    -0.05   0.01   0.13    -0.03  -0.09   0.04
    48   1    -0.02  -0.03  -0.12     0.01  -0.00  -0.02     0.04   0.02  -0.04
    49   1     0.01  -0.19  -0.00     0.07  -0.02   0.00     0.06   0.05  -0.05
    50   1     0.06  -0.04  -0.03     0.01   0.06  -0.12    -0.14   0.07   0.03
    51   1     0.06  -0.05  -0.05     0.01   0.04  -0.17    -0.16   0.10   0.09
    52   1     0.02  -0.04  -0.05    -0.00  -0.02  -0.19    -0.06   0.10   0.09
    53   1    -0.03  -0.02  -0.02    -0.00  -0.06  -0.15     0.06   0.06   0.03
    54   1    -0.04  -0.01  -0.00    -0.00  -0.04  -0.10     0.07   0.03  -0.03
    55   1     0.02   0.04   0.06    -0.05  -0.03  -0.00    -0.02   0.01   0.05
    56   1     0.04   0.09   0.07    -0.14  -0.08  -0.02    -0.06   0.05   0.07
    57   1     0.04   0.11   0.06    -0.18  -0.11  -0.04    -0.10   0.07   0.03
    58   1     0.02   0.09   0.02    -0.14  -0.08  -0.04    -0.09   0.07  -0.03
    59   1    -0.00   0.04   0.00    -0.06  -0.03  -0.03    -0.04   0.03  -0.05
    60   1    -0.00   0.03   0.02    -0.02   0.00   0.12     0.05  -0.16  -0.25
    61   1    -0.01   0.03  -0.03    -0.02   0.00   0.22     0.09  -0.20  -0.22
    62   1    -0.02   0.01  -0.09     0.02   0.01   0.21     0.11  -0.10   0.04
    63   1    -0.02  -0.02  -0.11     0.04   0.01   0.10     0.09   0.04   0.27
    64   1    -0.02  -0.02  -0.06     0.04   0.01   0.01     0.04   0.08   0.24
    65   1     0.02  -0.02   0.08    -0.02   0.03  -0.11     0.08  -0.05   0.10
    66   1     0.03  -0.06   0.12     0.03   0.06  -0.13     0.03  -0.06   0.11
    67   1     0.02  -0.08   0.11     0.12   0.07  -0.05    -0.08  -0.05   0.02
    68   1    -0.01  -0.07   0.05     0.16   0.05   0.05    -0.14  -0.01  -0.08
    69   1    -0.02  -0.03   0.01     0.11   0.02   0.07    -0.10   0.00  -0.10
                      4                      5                      6
                      A                      A                      A
 Frequencies --     21.7542                24.5656                29.8905
 Red. masses --      6.5918                 5.9349                 4.1897
 Frc consts  --      0.0018                 0.0021                 0.0022
 IR Inten    --      0.2338                 0.4516                 0.0427
  Atom  AN      X      Y      Z        X      Y      Z        X      Y      Z
     1   6    -0.07  -0.02  -0.03    -0.05   0.01  -0.03    -0.03  -0.05  -0.00
     2   6    -0.10   0.00  -0.00    -0.08  -0.04  -0.02    -0.03  -0.03   0.00
     3   6    -0.08   0.05   0.03    -0.09  -0.12   0.01    -0.02   0.01   0.00
     4   6    -0.04   0.08   0.04    -0.08  -0.14   0.02    -0.01   0.04   0.00
     5   6    -0.02   0.06   0.02    -0.05  -0.08   0.00    -0.01   0.03   0.00
     6   6    -0.03   0.01  -0.01    -0.03  -0.01  -0.02    -0.02  -0.01  -0.00
     7   6    -0.01  -0.01  -0.04    -0.01   0.03  -0.04    -0.01  -0.02  -0.00
     8   8     0.09   0.12   0.03     0.02  -0.03   0.00     0.01   0.05   0.00
     9   8    -0.02   0.08   0.04     0.11  -0.04   0.05    -0.07   0.04  -0.00
    10  16     0.03   0.08   0.02     0.03  -0.03   0.01    -0.02   0.03   0.00
    11   7     0.04   0.02  -0.03    -0.01   0.04  -0.04     0.00  -0.02  -0.00
    12   8     0.02   0.09   0.03    -0.04  -0.11   0.01     0.00   0.06   0.00
    13   6    -0.09  -0.02   0.08     0.14  -0.10   0.06     0.12  -0.11  -0.03
    14   6    -0.12   0.02   0.14     0.21  -0.14   0.09     0.15  -0.13  -0.04
    15   6    -0.09   0.06   0.15     0.21  -0.08   0.11     0.05  -0.07  -0.03
    16   6    -0.02   0.06   0.10     0.13   0.01   0.09    -0.07   0.01  -0.00
    17   6     0.00   0.02   0.04     0.06   0.04   0.05    -0.09   0.02   0.01
    18   8    -0.02  -0.09  -0.04    -0.05  -0.01  -0.01     0.00  -0.03  -0.01
    19   6    -0.03  -0.02   0.03     0.06  -0.01   0.04     0.00  -0.04  -0.01
    20   6    -0.01  -0.05  -0.03    -0.01   0.01  -0.00    -0.01  -0.03  -0.01
    21   8     0.03  -0.03  -0.06    -0.01   0.05  -0.02    -0.02  -0.03  -0.00
    22   6     0.00  -0.04  -0.07    -0.02   0.04  -0.05    -0.01  -0.03  -0.01
    23   7    -0.01  -0.05  -0.08    -0.02   0.04  -0.06    -0.01  -0.02  -0.01
    24   6    -0.00  -0.02  -0.03    -0.04   0.06  -0.01    -0.01   0.01   0.01
    25   7     0.00  -0.06  -0.08    -0.02   0.04  -0.04    -0.01  -0.02  -0.01
    26   6    -0.02  -0.01  -0.04    -0.01   0.03  -0.02    -0.01   0.01   0.01
    27   6     0.07  -0.06  -0.01    -0.01   0.03  -0.00     0.03   0.01   0.00
    28  15     0.01  -0.04  -0.05    -0.02   0.04  -0.02    -0.01  -0.00   0.00
    29   6     0.02   0.01  -0.00    -0.06   0.05   0.01     0.03   0.04   0.03
    30   6     0.01   0.03   0.00    -0.08   0.06   0.01     0.03   0.05   0.03
    31   6    -0.02   0.02  -0.02    -0.09   0.07  -0.00    -0.01   0.03   0.02
    32   6    -0.04  -0.00  -0.04    -0.07   0.08  -0.02    -0.05  -0.01  -0.00
    33   6    -0.03  -0.02  -0.05    -0.05   0.07  -0.03    -0.05  -0.02  -0.01
    34   6    -0.02   0.03  -0.00    -0.03   0.04   0.03     0.00  -0.02  -0.06
    35   6    -0.04   0.05   0.00    -0.02   0.03   0.02     0.00  -0.02  -0.04
    36   6    -0.07   0.04  -0.03     0.01   0.01  -0.04    -0.01   0.01   0.04
    37   6    -0.07  -0.00  -0.07     0.02   0.00  -0.09    -0.02   0.04   0.11
    38   6    -0.04  -0.03  -0.07     0.01   0.02  -0.08    -0.02   0.04   0.10
    39   6     0.09  -0.07  -0.01    -0.04   0.04  -0.02     0.14  -0.06   0.06
    40   6     0.15  -0.10   0.03    -0.03   0.03  -0.00     0.16  -0.05   0.05
    41   6     0.20  -0.11   0.07     0.01   0.00   0.03     0.06   0.03  -0.02
    42   6     0.18  -0.10   0.07     0.03  -0.01   0.04    -0.06   0.11  -0.09
    43   6     0.11  -0.08   0.03     0.02  -0.00   0.02    -0.08   0.09  -0.08
    44   1    -0.08  -0.05  -0.05    -0.04   0.07  -0.05    -0.03  -0.08  -0.00
    45   1    -0.13  -0.02  -0.01    -0.09  -0.02  -0.02    -0.03  -0.06   0.00
    46   1    -0.10   0.07   0.05    -0.12  -0.16   0.02    -0.02   0.02   0.00
    47   1    -0.03   0.12   0.07    -0.09  -0.20   0.03     0.00   0.07   0.01
    48   1    -0.03  -0.01  -0.03     0.01   0.04  -0.02    -0.02  -0.02  -0.01
    49   1     0.06   0.04  -0.05     0.01   0.11  -0.05     0.00  -0.03  -0.00
    50   1    -0.11  -0.05   0.07     0.13  -0.15   0.05     0.19  -0.16  -0.05
    51   1    -0.17   0.02   0.17     0.27  -0.21   0.11     0.24  -0.20  -0.06
    52   1    -0.11   0.09   0.19     0.27  -0.11   0.13     0.06  -0.09  -0.04
    53   1     0.00   0.10   0.11     0.13   0.05   0.10    -0.15   0.05   0.01
    54   1     0.05   0.03   0.01     0.01   0.11   0.04    -0.18   0.08   0.02
    55   1     0.04   0.01   0.01    -0.06   0.03   0.02     0.06   0.06   0.04
    56   1     0.02   0.04   0.03    -0.10   0.05   0.02     0.06   0.08   0.05
    57   1    -0.03   0.04  -0.01    -0.11   0.08   0.00    -0.01   0.04   0.02
    58   1    -0.07  -0.00  -0.06    -0.08   0.10  -0.03    -0.08  -0.02  -0.02
    59   1    -0.05  -0.04  -0.07    -0.04   0.08  -0.04    -0.08  -0.04  -0.02
    60   1     0.00   0.04   0.02    -0.04   0.05   0.08     0.01  -0.04  -0.13
    61   1    -0.04   0.09   0.04    -0.03   0.03   0.07     0.01  -0.04  -0.10
    62   1    -0.08   0.06  -0.02     0.01   0.00  -0.04    -0.01   0.01   0.05
    63   1    -0.09  -0.02  -0.09     0.03  -0.01  -0.14    -0.03   0.06   0.18
    64   1    -0.04  -0.07  -0.10     0.02   0.01  -0.12    -0.03   0.06   0.15
    65   1     0.05  -0.06  -0.04    -0.06   0.06  -0.04     0.22  -0.13   0.12
    66   1     0.16  -0.11   0.03    -0.05   0.04  -0.01     0.25  -0.11   0.10
    67   1     0.25  -0.14   0.10     0.02  -0.01   0.04     0.07   0.04  -0.03
    68   1     0.22  -0.11   0.10     0.06  -0.04   0.06    -0.14   0.18  -0.15
    69   1     0.10  -0.07   0.03     0.04  -0.01   0.03    -0.17   0.15  -0.13
                      7                      8                      9
                      A                      A                      A
 Frequencies --     37.0661                41.4921                47.4309
 Red. masses --      3.8997                 5.3850                 5.5601
 Frc consts  --      0.0032                 0.0055                 0.0074
 IR Inten    --      0.1773                 0.2590                 0.2113
  Atom  AN      X      Y      Z        X      Y      Z        X      Y      Z
     1   6    -0.01   0.01  -0.01    -0.07  -0.02  -0.04    -0.01   0.13  -0.05
     2   6    -0.02   0.02  -0.00    -0.09  -0.01  -0.02    -0.02   0.10  -0.04
     3   6    -0.02   0.01   0.00    -0.08   0.01   0.00    -0.05  -0.02  -0.03
     4   6    -0.01   0.00   0.01    -0.05   0.03   0.01    -0.06  -0.10  -0.02
     5   6    -0.01  -0.00   0.00    -0.03   0.02  -0.00    -0.04  -0.06  -0.03
     6   6    -0.01   0.00  -0.00    -0.04  -0.01  -0.03    -0.02   0.05  -0.04
     7   6    -0.00   0.00  -0.01    -0.02  -0.02  -0.05    -0.02   0.07  -0.04
     8   8     0.01   0.01   0.00     0.05   0.03   0.00    -0.01   0.04  -0.03
     9   8     0.01   0.00   0.02    -0.03   0.02  -0.00     0.14   0.00   0.08
    10  16     0.01   0.00   0.01     0.01   0.02  -0.01     0.02   0.02  -0.00
    11   7     0.00   0.01  -0.01     0.01  -0.02  -0.04    -0.02   0.12  -0.06
    12   8    -0.01  -0.01   0.01    -0.00   0.03   0.01    -0.05  -0.12  -0.03
    13   6    -0.10   0.06   0.02    -0.05  -0.03   0.00     0.07  -0.00  -0.04
    14   6    -0.09   0.05   0.03    -0.03  -0.04   0.02     0.04   0.02  -0.02
    15   6     0.05  -0.03   0.01     0.04  -0.06   0.02    -0.05   0.09  -0.01
    16   6     0.17  -0.10  -0.02     0.08  -0.06  -0.01    -0.11   0.14  -0.00
    17   6     0.15  -0.09  -0.03     0.06  -0.06  -0.03    -0.07   0.11  -0.01
    18   8    -0.04   0.01  -0.00    -0.06  -0.04  -0.05     0.03   0.02  -0.05
    19   6     0.02  -0.01  -0.01    -0.01  -0.04  -0.03     0.02   0.04  -0.03
    20   6    -0.00  -0.00  -0.01    -0.03  -0.04  -0.05     0.03   0.03  -0.05
    21   8     0.01  -0.01  -0.02    -0.01  -0.03  -0.06     0.04   0.03  -0.06
    22   6     0.00  -0.01  -0.01    -0.01  -0.03  -0.06     0.00   0.03  -0.04
    23   7    -0.00  -0.01   0.01    -0.01  -0.03  -0.03    -0.02   0.00   0.01
    24   6    -0.00  -0.01   0.02     0.02   0.00  -0.00     0.03  -0.06   0.02
    25   7     0.00  -0.01   0.02    -0.01  -0.02  -0.01     0.00  -0.03   0.04
    26   6    -0.00  -0.01   0.01    -0.01  -0.02   0.03    -0.01  -0.03   0.03
    27   6     0.01   0.01   0.01    -0.02  -0.01  -0.02    -0.02  -0.04   0.02
    28  15     0.00  -0.01   0.03    -0.01  -0.02  -0.01    -0.00  -0.04   0.03
    29   6     0.03   0.02   0.04     0.01  -0.01  -0.01     0.09  -0.02  -0.00
    30   6     0.02   0.01   0.04     0.10   0.06   0.01     0.14  -0.02  -0.01
    31   6    -0.02  -0.02   0.02     0.21   0.15   0.04     0.12  -0.08   0.00
    32   6    -0.05  -0.04   0.01     0.22   0.16   0.05     0.06  -0.12   0.03
    33   6    -0.04  -0.04   0.01     0.13   0.08   0.02     0.01  -0.11   0.03
    34   6    -0.01   0.03   0.08    -0.02  -0.02   0.06    -0.02   0.01   0.09
    35   6    -0.02   0.03   0.05    -0.02  -0.01   0.14    -0.04   0.04   0.12
    36   6    -0.01  -0.01  -0.05    -0.01   0.01   0.19    -0.05   0.02   0.07
    37   6    -0.00  -0.04  -0.13    -0.00   0.01   0.15    -0.04  -0.03  -0.00
    38   6     0.00  -0.04  -0.09     0.00  -0.00   0.07    -0.02  -0.05  -0.02
    39   6     0.10  -0.05   0.06    -0.05   0.00  -0.05     0.01  -0.06   0.06
    40   6     0.09  -0.02   0.02    -0.07   0.02  -0.07     0.00  -0.06   0.06
    41   6    -0.01   0.07  -0.06    -0.06   0.03  -0.06    -0.04  -0.04   0.02
    42   6    -0.11   0.13  -0.10    -0.03   0.01  -0.03    -0.08  -0.02  -0.01
    43   6    -0.10   0.09  -0.07    -0.01  -0.01  -0.01    -0.06  -0.02  -0.01
    44   1    -0.01   0.02  -0.01    -0.08  -0.04  -0.06     0.01   0.22  -0.06
    45   1    -0.02   0.02  -0.00    -0.11  -0.03  -0.03    -0.02   0.17  -0.04
    46   1    -0.02   0.01   0.01    -0.09   0.02   0.02    -0.06  -0.05  -0.02
    47   1    -0.01  -0.00   0.01    -0.04   0.05   0.04    -0.07  -0.19  -0.01
    48   1    -0.01   0.00  -0.00    -0.03  -0.02  -0.05    -0.04   0.07  -0.00
    49   1     0.01   0.03  -0.01     0.03  -0.00  -0.05    -0.01   0.18  -0.07
    50   1    -0.20   0.12   0.04    -0.11  -0.02   0.00     0.14  -0.06  -0.05
    51   1    -0.18   0.11   0.06    -0.06  -0.03   0.04     0.09  -0.02  -0.03
    52   1     0.06  -0.03   0.02     0.06  -0.06   0.04    -0.08   0.12   0.00
    53   1     0.28  -0.16  -0.03     0.14  -0.08  -0.01    -0.18   0.20   0.01
    54   1     0.24  -0.15  -0.05     0.09  -0.06  -0.05    -0.12   0.15  -0.01
    55   1     0.06   0.04   0.05    -0.07  -0.07  -0.03     0.11   0.02  -0.02
    56   1     0.05   0.03   0.05     0.09   0.05   0.01     0.19   0.01  -0.03
    57   1    -0.03  -0.02   0.02     0.28   0.21   0.06     0.16  -0.08  -0.00
    58   1    -0.09  -0.07   0.00     0.30   0.22   0.07     0.04  -0.16   0.04
    59   1    -0.06  -0.06   0.00     0.14   0.09   0.03    -0.03  -0.14   0.05
    60   1    -0.02   0.06   0.16    -0.02  -0.03   0.03    -0.01   0.03   0.13
    61   1    -0.03   0.06   0.11    -0.03  -0.01   0.17    -0.05   0.07   0.17
    62   1    -0.01  -0.01  -0.08    -0.02   0.02   0.25    -0.07   0.04   0.09
    63   1     0.00  -0.07  -0.21     0.00   0.02   0.18    -0.05  -0.04  -0.04
    64   1     0.01  -0.07  -0.15     0.01  -0.00   0.04    -0.02  -0.08  -0.07
    65   1     0.18  -0.12   0.12    -0.05   0.01  -0.05     0.05  -0.07   0.09
    66   1     0.17  -0.07   0.06    -0.09   0.04  -0.09     0.03  -0.07   0.08
    67   1    -0.02   0.09  -0.08    -0.08   0.04  -0.08    -0.05  -0.04   0.02
    68   1    -0.19   0.20  -0.16    -0.02   0.01  -0.03    -0.11  -0.00  -0.04
    69   1    -0.17   0.14  -0.10     0.02  -0.02   0.02    -0.09  -0.00  -0.04
                     10                     11                     12
                      A                      A                      A
 Frequencies --     49.8392                54.6163                60.4099
 Red. masses --      4.9924                 5.0711                 5.6655
 Frc consts  --      0.0073                 0.0089                 0.0122
 IR Inten    --      0.6201                 0.0540                 0.9789
  Atom  AN      X      Y      Z        X      Y      Z        X      Y      Z
     1   6    -0.01   0.08   0.02     0.05   0.07   0.04     0.06  -0.02   0.04
     2   6     0.00   0.07   0.01     0.07   0.06   0.02     0.07  -0.02   0.03
     3   6    -0.01   0.01  -0.01     0.05   0.00  -0.01     0.07  -0.02   0.01
     4   6    -0.04  -0.04  -0.01     0.01  -0.04  -0.02     0.05  -0.00  -0.00
     5   6    -0.05  -0.02  -0.00    -0.01  -0.03   0.00     0.03   0.00   0.01
     6   6    -0.03   0.03   0.01     0.01   0.02   0.03     0.03  -0.00   0.03
     7   6    -0.05   0.04   0.03    -0.02   0.03   0.05     0.02   0.01   0.05
     8   8    -0.10   0.01  -0.01    -0.09  -0.00  -0.01    -0.03  -0.04   0.01
     9   8     0.01  -0.01   0.05     0.03  -0.01   0.05     0.00  -0.01  -0.03
    10  16    -0.05   0.00   0.01    -0.04  -0.01   0.02    -0.01  -0.02   0.00
    11   7    -0.07   0.06   0.01    -0.05   0.05   0.03     0.00  -0.01   0.04
    12   8    -0.08  -0.06  -0.01    -0.05  -0.07  -0.01     0.02   0.01   0.00
    13   6    -0.05   0.05   0.00     0.03   0.03   0.01     0.02   0.04   0.01
    14   6     0.01   0.02  -0.02    -0.01   0.04  -0.01     0.01   0.05  -0.00
    15   6     0.11  -0.07  -0.04    -0.05   0.04  -0.01     0.03   0.01  -0.01
    16   6     0.15  -0.11  -0.04    -0.06   0.03   0.01     0.06  -0.03  -0.00
    17   6     0.10  -0.06  -0.02    -0.02   0.02   0.02     0.07  -0.03   0.01
    18   8    -0.05   0.06   0.03     0.07   0.01   0.04     0.11  -0.00   0.04
    19   6     0.00   0.01   0.00     0.02   0.02   0.02     0.06   0.00   0.02
    20   6    -0.03   0.04   0.02     0.04   0.01   0.04     0.07   0.01   0.04
    21   8    -0.03   0.03   0.02     0.01   0.02   0.06     0.01   0.02   0.07
    22   6    -0.04   0.03   0.03    -0.01   0.02   0.06     0.01   0.02   0.04
    23   7    -0.05   0.02   0.03    -0.03  -0.01   0.01     0.00   0.01  -0.04
    24   6     0.00  -0.01  -0.03    -0.04  -0.02  -0.03    -0.01   0.02  -0.08
    25   7    -0.04   0.01   0.01    -0.02  -0.03  -0.04     0.00   0.00  -0.09
    26   6    -0.03   0.01  -0.01    -0.02  -0.05  -0.02    -0.01   0.01  -0.07
    27   6    -0.00   0.02  -0.02     0.01  -0.03  -0.05    -0.03  -0.04  -0.05
    28  15    -0.03   0.01  -0.02    -0.03  -0.04  -0.04    -0.00  -0.00  -0.09
    29   6     0.05   0.01  -0.07    -0.14  -0.08  -0.01     0.02   0.05  -0.05
    30   6     0.10  -0.00  -0.08    -0.13  -0.02   0.02    -0.00   0.06  -0.05
    31   6     0.10  -0.05  -0.05    -0.01   0.12   0.02    -0.05   0.05  -0.07
    32   6     0.05  -0.08  -0.02     0.09   0.19   0.00    -0.08   0.02  -0.10
    33   6     0.00  -0.06  -0.01     0.07   0.12  -0.02    -0.05   0.01  -0.10
    34   6    -0.01  -0.03  -0.12    -0.04  -0.06   0.03    -0.02   0.05   0.01
    35   6    -0.01  -0.04  -0.12    -0.02  -0.07   0.05    -0.06   0.11   0.15
    36   6    -0.02   0.00   0.00     0.01  -0.08   0.02    -0.09   0.12   0.21
    37   6    -0.04   0.04   0.12     0.02  -0.07  -0.03    -0.07   0.08   0.11
    38   6    -0.04   0.05   0.11     0.01  -0.06  -0.05    -0.03   0.02  -0.03
    39   6     0.02   0.00  -0.02     0.08  -0.08  -0.06    -0.01  -0.05   0.04
    40   6     0.10  -0.03   0.03     0.15  -0.06  -0.06    -0.03  -0.10   0.08
    41   6     0.15  -0.05   0.08     0.13   0.01  -0.07    -0.07  -0.13   0.04
    42   6     0.12  -0.03   0.07     0.05   0.06  -0.07    -0.10  -0.13  -0.05
    43   6     0.04   0.00   0.02    -0.01   0.04  -0.05    -0.07  -0.08  -0.09
    44   1     0.00   0.13   0.03     0.06   0.11   0.06     0.06  -0.02   0.06
    45   1     0.02   0.11   0.01     0.10   0.10   0.03     0.09  -0.04   0.04
    46   1    -0.01  -0.01  -0.02     0.07  -0.01  -0.02     0.08  -0.02  -0.01
    47   1    -0.05  -0.09  -0.02    -0.00  -0.09  -0.04     0.05   0.00  -0.02
    48   1    -0.05   0.04   0.04    -0.03   0.03   0.07     0.03   0.01   0.04
    49   1    -0.08   0.09   0.01    -0.07   0.06   0.04    -0.01  -0.05   0.06
    50   1    -0.12   0.11   0.02     0.06   0.03   0.01     0.01   0.07   0.02
    51   1    -0.03   0.05  -0.02    -0.00   0.05  -0.02    -0.02   0.08  -0.01
    52   1     0.15  -0.10  -0.05    -0.08   0.06  -0.02     0.01   0.01  -0.02
    53   1     0.23  -0.17  -0.05    -0.09   0.03   0.01     0.08  -0.06  -0.01
    54   1     0.14  -0.10  -0.02    -0.03   0.01   0.04     0.10  -0.06   0.02
    55   1     0.05   0.04  -0.09    -0.21  -0.18  -0.00     0.05   0.06  -0.03
    56   1     0.13   0.02  -0.10    -0.21  -0.08   0.03     0.02   0.09  -0.02
    57   1     0.14  -0.06  -0.06     0.00   0.17   0.04    -0.07   0.05  -0.06
    58   1     0.05  -0.11   0.00     0.18   0.30   0.01    -0.11   0.01  -0.12
    59   1    -0.03  -0.07   0.02     0.15   0.17  -0.03    -0.07  -0.01  -0.12
    60   1     0.00  -0.06  -0.22    -0.06  -0.06   0.06    -0.00   0.05  -0.02
    61   1     0.01  -0.07  -0.21    -0.03  -0.08   0.09    -0.07   0.15   0.22
    62   1    -0.01  -0.00   0.00     0.02  -0.09   0.03    -0.12   0.17   0.33
    63   1    -0.04   0.07   0.21     0.05  -0.07  -0.06    -0.10   0.08   0.15
    64   1    -0.05   0.08   0.19     0.02  -0.05  -0.09    -0.03  -0.01  -0.09
    65   1    -0.01   0.01  -0.04     0.10  -0.13  -0.05     0.03  -0.02   0.07
    66   1     0.12  -0.05   0.04     0.21  -0.10  -0.07    -0.01  -0.10   0.15
    67   1     0.22  -0.08   0.12     0.18   0.02  -0.07    -0.09  -0.17   0.07
    68   1     0.16  -0.04   0.10     0.04   0.11  -0.07    -0.13  -0.16  -0.09
    69   1     0.02   0.01   0.01    -0.07   0.08  -0.05    -0.09  -0.08  -0.16
                     13                     14                     15
                      A                      A                      A
 Frequencies --     64.5253                71.6716                78.4314
 Red. masses --      6.3461                 4.3551                 5.9223
 Frc consts  --      0.0156                 0.0132                 0.0215
 IR Inten    --      1.6951                 0.2284                 2.0866
  Atom  AN      X      Y      Z        X      Y      Z        X      Y      Z
     1   6     0.09   0.08   0.00     0.02   0.01   0.02    -0.03   0.02  -0.00
     2   6     0.12   0.18  -0.01     0.04   0.03   0.01    -0.06  -0.06   0.00
     3   6     0.11   0.14  -0.02     0.03   0.02  -0.00    -0.06  -0.10   0.01
     4   6     0.07   0.02  -0.03     0.01   0.00  -0.01    -0.05  -0.05   0.01
     5   6     0.04  -0.06  -0.01    -0.00  -0.01   0.00    -0.02   0.03   0.00
     6   6     0.05  -0.03  -0.00     0.00  -0.01   0.02    -0.02   0.06  -0.00
     7   6     0.02  -0.05   0.02    -0.01  -0.01   0.03    -0.01   0.06  -0.00
     8   8     0.02   0.15  -0.03    -0.04   0.02  -0.00    -0.03  -0.09   0.01
     9   8     0.08   0.01   0.22    -0.01  -0.00   0.04     0.02  -0.00  -0.12
    10  16     0.04   0.03   0.04    -0.02   0.00   0.01    -0.01  -0.01  -0.03
    11   7     0.01   0.04  -0.03    -0.02   0.00   0.02    -0.01   0.04   0.01
    12   8    -0.01  -0.15  -0.03    -0.02  -0.03  -0.00    -0.00   0.06   0.01
    13   6    -0.03  -0.06  -0.01    -0.00  -0.00   0.01     0.07   0.04  -0.01
    14   6    -0.01  -0.07  -0.00    -0.01  -0.00  -0.00     0.02   0.08   0.00
    15   6     0.00  -0.08  -0.00    -0.03  -0.00  -0.01     0.02   0.08   0.00
    16   6     0.00  -0.07  -0.01    -0.04  -0.01   0.00     0.06   0.04  -0.01
    17   6    -0.01  -0.07  -0.01    -0.03  -0.01   0.01     0.11   0.01  -0.01
    18   8    -0.07  -0.05  -0.01     0.01  -0.01   0.02     0.17  -0.01  -0.01
    19   6    -0.03  -0.06  -0.01    -0.01  -0.01   0.02     0.10   0.01  -0.01
    20   6    -0.03  -0.06  -0.02    -0.00  -0.01   0.02     0.13   0.00  -0.01
    21   8     0.02  -0.08  -0.04    -0.01  -0.01   0.03     0.08   0.02   0.01
    22   6     0.02  -0.08   0.00    -0.01  -0.01   0.02     0.01   0.02   0.01
    23   7     0.03  -0.07   0.02    -0.01  -0.01  -0.02    -0.02  -0.03   0.01
    24   6     0.01   0.00   0.02    -0.04   0.01  -0.02    -0.01  -0.05   0.06
    25   7     0.01  -0.06  -0.01    -0.01  -0.01  -0.04     0.01  -0.09   0.01
    26   6    -0.01   0.01  -0.01     0.01  -0.04   0.00    -0.03  -0.04   0.02
    27   6     0.04  -0.02   0.01     0.00  -0.01  -0.03     0.04  -0.06   0.02
    28  15     0.03  -0.03   0.01    -0.02  -0.01  -0.02     0.01  -0.08   0.04
    29   6    -0.02  -0.01   0.06     0.12   0.14   0.04     0.01  -0.02   0.10
    30   6    -0.08  -0.01   0.07     0.17   0.21   0.06     0.01   0.03   0.13
    31   6    -0.10   0.02   0.04     0.05   0.13   0.02    -0.02   0.05   0.10
    32   6    -0.06   0.04   0.00    -0.13  -0.02  -0.04    -0.05   0.02   0.05
    33   6    -0.00   0.03  -0.01    -0.16  -0.08  -0.06    -0.04  -0.03   0.03
    34   6     0.02   0.05  -0.08    -0.01  -0.06   0.04     0.00   0.00  -0.09
    35   6    -0.02   0.09  -0.09     0.02  -0.09   0.05    -0.04   0.05  -0.13
    36   6    -0.09   0.10  -0.02     0.07  -0.09   0.02    -0.13   0.06  -0.06
    37   6    -0.12   0.06   0.05     0.08  -0.06  -0.02    -0.17   0.02   0.05
    38   6    -0.08   0.02   0.05     0.05  -0.03  -0.03    -0.12  -0.03   0.09
    39   6    -0.02   0.01  -0.03    -0.04   0.02  -0.08    -0.00  -0.04  -0.06
    40   6    -0.08   0.04  -0.07    -0.05   0.04  -0.11    -0.04   0.03  -0.14
    41   6    -0.09   0.04  -0.08     0.00   0.03  -0.07    -0.02   0.06  -0.12
    42   6    -0.02  -0.00  -0.03     0.06   0.00  -0.00     0.04   0.03  -0.02
    43   6     0.04  -0.03   0.01     0.06  -0.01   0.02     0.06  -0.03   0.05
    44   1     0.10   0.12   0.02     0.02   0.02   0.03    -0.03   0.04  -0.01
    45   1     0.16   0.28  -0.01     0.05   0.05   0.02    -0.07  -0.10   0.00
    46   1     0.14   0.22  -0.03     0.05   0.04  -0.01    -0.08  -0.17   0.01
    47   1     0.07   0.00  -0.04     0.01  -0.00  -0.02    -0.05  -0.08   0.02
    48   1    -0.02  -0.05   0.07    -0.01  -0.01   0.04    -0.03   0.05  -0.02
    49   1     0.02   0.17  -0.03    -0.03   0.01   0.02    -0.01  -0.05   0.01
    50   1    -0.04  -0.06  -0.00     0.01  -0.00   0.01     0.07   0.05  -0.01
    51   1    -0.02  -0.08   0.00    -0.01   0.01  -0.01    -0.01   0.10   0.01
    52   1     0.02  -0.09  -0.00    -0.04  -0.00  -0.01    -0.02   0.10   0.00
    53   1     0.02  -0.08  -0.01    -0.05  -0.01   0.00     0.07   0.04  -0.01
    54   1    -0.01  -0.06  -0.02    -0.03  -0.02   0.02     0.14  -0.01  -0.02
    55   1    -0.01  -0.04   0.08     0.20   0.19   0.07     0.03  -0.03   0.13
    56   1    -0.11  -0.02   0.09     0.30   0.32   0.11     0.03   0.06   0.17
    57   1    -0.14   0.03   0.04     0.09   0.18   0.04    -0.02   0.09   0.11
    58   1    -0.07   0.07  -0.02    -0.22  -0.09  -0.07    -0.07   0.03   0.02
    59   1     0.02   0.04  -0.03    -0.27  -0.17  -0.10    -0.05  -0.05  -0.01
    60   1     0.07   0.04  -0.13    -0.04  -0.06   0.06     0.07  -0.00  -0.14
    61   1    -0.00   0.12  -0.14     0.01  -0.12   0.08    -0.01   0.08  -0.22
    62   1    -0.12   0.13  -0.03     0.09  -0.12   0.02    -0.17   0.09  -0.09
    63   1    -0.17   0.06   0.09     0.12  -0.06  -0.04    -0.24   0.02   0.11
    64   1    -0.09  -0.01   0.10     0.06  -0.01  -0.05    -0.14  -0.07   0.16
    65   1    -0.03   0.02  -0.03    -0.08   0.03  -0.11    -0.02  -0.06  -0.08
    66   1    -0.13   0.07  -0.11    -0.09   0.06  -0.16    -0.08   0.05  -0.21
    67   1    -0.14   0.06  -0.11    -0.00   0.05  -0.09    -0.06   0.11  -0.18
    68   1    -0.02  -0.01  -0.03     0.10  -0.00   0.03     0.05   0.06  -0.00
    69   1     0.08  -0.06   0.04     0.09  -0.03   0.06     0.10  -0.04   0.11
                     16                     17                     18
                      A                      A                      A
 Frequencies --     93.2228               121.9863               130.7237
 Red. masses --      7.8392                 6.2522                 6.6374
 Frc consts  --      0.0401                 0.0548                 0.0668
 IR Inten    --      2.1991                 1.6283                 3.0598
  Atom  AN      X      Y      Z        X      Y      Z        X      Y      Z
     1   6    -0.06   0.08  -0.09    -0.01   0.15  -0.06    -0.01  -0.17  -0.01
     2   6    -0.09   0.07  -0.07    -0.06   0.04  -0.04     0.01  -0.11  -0.01
     3   6    -0.11  -0.03  -0.03    -0.09  -0.12  -0.00     0.05   0.10  -0.02
     4   6    -0.08  -0.08  -0.02    -0.06  -0.12   0.01     0.06   0.16  -0.02
     5   6    -0.05  -0.04  -0.04    -0.00   0.03  -0.02     0.03   0.04  -0.02
     6   6    -0.04   0.02  -0.07     0.02   0.11  -0.04     0.00  -0.06  -0.02
     7   6    -0.03  -0.03  -0.09     0.02   0.05  -0.05     0.01   0.04  -0.01
     8   8     0.04   0.13  -0.05     0.06   0.01  -0.01     0.05  -0.06  -0.00
     9   8    -0.06   0.02   0.10     0.01   0.04  -0.09     0.32   0.02  -0.07
    10  16    -0.01   0.02  -0.01     0.04   0.04  -0.03     0.12   0.03  -0.03
    11   7    -0.00  -0.04  -0.07     0.03   0.02  -0.03     0.04   0.18  -0.07
    12   8    -0.03  -0.05  -0.04     0.03   0.08  -0.01     0.02  -0.02  -0.01
    13   6     0.05  -0.02   0.02    -0.04   0.07   0.05     0.01   0.02   0.03
    14   6    -0.08   0.05  -0.04     0.01  -0.01  -0.07    -0.01   0.01  -0.04
    15   6    -0.13   0.00  -0.05    -0.01  -0.12  -0.10    -0.04  -0.06  -0.06
    16   6    -0.06  -0.11  -0.01    -0.09  -0.15  -0.01    -0.05  -0.10  -0.01
    17   6     0.06  -0.16   0.04    -0.13  -0.07   0.10    -0.04  -0.08   0.06
    18   8     0.31  -0.19   0.07    -0.16   0.07   0.18     0.02  -0.05   0.08
    19   6     0.11  -0.11   0.06    -0.10   0.03   0.13    -0.01  -0.02   0.07
    20   6     0.17  -0.13   0.09    -0.09   0.04   0.17     0.00  -0.02   0.09
    21   8    -0.02  -0.02   0.14     0.02   0.02   0.11    -0.03   0.03   0.07
    22   6    -0.01  -0.03  -0.03     0.04   0.01   0.02    -0.01   0.03  -0.04
    23   7    -0.00  -0.01  -0.10     0.03   0.01  -0.01    -0.02   0.03  -0.08
    24   6     0.00   0.05   0.01     0.06  -0.02  -0.00    -0.09  -0.02   0.00
    25   7    -0.02   0.03  -0.01     0.05  -0.01   0.04    -0.03   0.05  -0.02
    26   6     0.01   0.05   0.02     0.05  -0.02  -0.03    -0.06  -0.01   0.04
    27   6    -0.00   0.06   0.03     0.04  -0.04  -0.02    -0.07   0.01   0.00
    28  15    -0.00   0.06   0.01     0.05  -0.04  -0.01    -0.07   0.00   0.01
    29   6    -0.01   0.03  -0.02     0.04  -0.02   0.04    -0.07  -0.01  -0.03
    30   6    -0.03  -0.01  -0.04    -0.01  -0.01   0.05     0.01   0.01  -0.03
    31   6    -0.02  -0.03  -0.02    -0.04   0.01   0.02     0.06   0.02   0.01
    32   6     0.00  -0.00   0.01    -0.02   0.02  -0.02     0.02  -0.01   0.03
    33   6     0.01   0.04   0.02     0.03  -0.00  -0.03    -0.06  -0.03   0.03
    34   6     0.01   0.01  -0.00     0.05   0.01  -0.01    -0.06  -0.02   0.02
    35   6     0.04  -0.02  -0.02     0.03   0.04   0.02    -0.05  -0.03  -0.02
    36   6     0.07  -0.01  -0.01    -0.00   0.04   0.02    -0.06  -0.03  -0.03
    37   6     0.07   0.03   0.01    -0.00  -0.00  -0.01    -0.06  -0.02  -0.00
    38   6     0.04   0.06   0.02     0.02  -0.03  -0.03    -0.06  -0.02   0.03
    39   6    -0.01   0.06   0.05     0.03  -0.03  -0.02    -0.05  -0.00  -0.01
    40   6    -0.02   0.05   0.07     0.00  -0.03  -0.04     0.01  -0.01   0.00
    41   6    -0.02   0.02   0.06    -0.01  -0.03  -0.05     0.04   0.01   0.03
    42   6    -0.02   0.02   0.04     0.01  -0.04  -0.04     0.00   0.03   0.04
    43   6    -0.01   0.04   0.02     0.03  -0.05  -0.03    -0.05   0.04   0.02
    44   1    -0.05   0.13  -0.12     0.01   0.24  -0.09    -0.03  -0.28   0.00
    45   1    -0.11   0.12  -0.08    -0.08   0.06  -0.04    -0.01  -0.20  -0.01
    46   1    -0.14  -0.05  -0.02    -0.14  -0.25   0.01     0.07   0.19  -0.02
[...]
 Vib (Bot)    4  0.840254D+01          0.924411          2.128534
 Vib (Bot)    5  0.743970D+01          0.871555          2.006830
 Vib (Bot)    6  0.611214D+01          0.786193          1.810277
 Vib (Bot)    7  0.492595D+01          0.692490          1.594518
 Vib (Bot)    8  0.439859D+01          0.643313          1.481283
 Vib (Bot)    9  0.384532D+01          0.584933          1.346857
 Vib (Bot)   10  0.365844D+01          0.563296          1.297036
 Vib (Bot)   11  0.333638D+01          0.523275          1.204885
 Vib (Bot)   12  0.301391D+01          0.479130          1.103237
 Vib (Bot)   13  0.281987D+01          0.450230          1.036693
 Vib (Bot)   14  0.253564D+01          0.404087          0.930446
 Vib (Bot)   15  0.231418D+01          0.364397          0.839056
 Vib (Bot)   16  0.194087D+01          0.287997          0.663138
 Vib (Bot)   17  0.147190D+01          0.167879          0.386556
 Vib (Bot)   18  0.136978D+01          0.136650          0.314649
 Vib (Bot)   19  0.129230D+01          0.111364          0.256424
 Vib (Bot)   20  0.115243D+01          0.061616          0.141876
 Vib (Bot)   21  0.104241D+01          0.018037          0.041532
 Vib (Bot)   22  0.954047D+00         -0.020430         -0.047042
 Vib (Bot)   23  0.919983D+00         -0.036220         -0.083400
 Vib (Bot)   24  0.759448D+00         -0.119502         -0.275163
 Vib (Bot)   25  0.693341D+00         -0.159053         -0.366233
 Vib (Bot)   26  0.678189D+00         -0.168649         -0.388329
 Vib (Bot)   27  0.661869D+00         -0.179228         -0.412688
 Vib (Bot)   28  0.643677D+00         -0.191332         -0.440559
 Vib (Bot)   29  0.631973D+00         -0.199302         -0.458909
 Vib (Bot)   30  0.618625D+00         -0.208572         -0.480256
 Vib (Bot)   31  0.595546D+00         -0.225085         -0.518277
 Vib (Bot)   32  0.577998D+00         -0.238074         -0.548185
 Vib (Bot)   33  0.470180D+00         -0.327736         -0.754640
 Vib (Bot)   34  0.444377D+00         -0.352249         -0.811083
 Vib (Bot)   35  0.417552D+00         -0.379290         -0.873347
 Vib (Bot)   36  0.399864D+00         -0.398088         -0.916631
 Vib (Bot)   37  0.367152D+00         -0.435154         -1.001979
 Vib (Bot)   38  0.362100D+00         -0.441171         -1.015835
 Vib (Bot)   39  0.359632D+00         -0.444142         -1.022674
 Vib (Bot)   40  0.356040D+00         -0.448502         -1.032713
 Vib (Bot)   41  0.353171D+00         -0.452015         -1.040804
 Vib (Bot)   42  0.351101D+00         -0.454568         -1.046682
 Vib (Bot)   43  0.317397D+00         -0.498397         -1.147600
 Vib (Bot)   44  0.314926D+00         -0.501791         -1.155417
 Vib (Bot)   45  0.309875D+00         -0.508813         -1.171585
 Vib (Bot)   46  0.307459D+00         -0.512212         -1.179413
 Vib (Bot)   47  0.297816D+00         -0.526052         -1.211280
 Vib (Bot)   48  0.286572D+00         -0.542767         -1.249767
 Vib (Bot)   49  0.276896D+00         -0.557683         -1.284113
 Vib (Bot)   50  0.267594D+00         -0.572523         -1.318283
 Vib (Bot)   51  0.255964D+00         -0.591821         -1.362719
 Vib (Bot)   52  0.248286D+00         -0.605047         -1.393173
 Vib (Bot)   53  0.239181D+00         -0.621273         -1.430535
 Vib (Bot)   54  0.236610D+00         -0.625967         -1.441343
 Vib (V=0)       0.540084D+16         15.732461         36.225330
 Vib (V=0)    1  0.142274D+02          1.153125          2.655169
 Vib (V=0)    2  0.138520D+02          1.141512          2.628428
 Vib (V=0)    3  0.936971D+01          0.971726          2.237482
 Vib (V=0)    4  0.891740D+01          0.950238          2.188005
 Vib (V=0)    5  0.795648D+01          0.900721          2.073987
 Vib (V=0)    6  0.663256D+01          0.821681          1.891991
 Vib (V=0)    7  0.545126D+01          0.736497          1.695848
 Vib (V=0)    8  0.492691D+01          0.692575          1.594713
 Vib (V=0)    9  0.437769D+01          0.641245          1.476522
 Vib (V=0)   10  0.419245D+01          0.622468          1.433285
 Vib (V=0)   11  0.387363D+01          0.588119          1.354193
 Vib (V=0)   12  0.355510D+01          0.550852          1.268383
 Vib (V=0)   13  0.336386D+01          0.526838          1.213089
 Vib (V=0)   14  0.308447D+01          0.489180          1.126379
 Vib (V=0)   15  0.286758D+01          0.457515          1.053468
 Vib (V=0)   16  0.250424D+01          0.398676          0.917986
 Vib (V=0)   17  0.205451D+01          0.312708          0.720037
 Vib (V=0)   18  0.195818D+01          0.291853          0.672016
 Vib (V=0)   19  0.188566D+01          0.275462          0.634276
 Vib (V=0)   20  0.175623D+01          0.244580          0.563167
 Vib (V=0)   21  0.165612D+01          0.219092          0.504477
 Vib (V=0)   22  0.157713D+01          0.197867          0.455606
 Vib (V=0)   23  0.154708D+01          0.189512          0.436367
 Vib (V=0)   24  0.140926D+01          0.148993          0.343068
 Vib (V=0)   25  0.135482D+01          0.131882          0.303670
 Vib (V=0)   26  0.134258D+01          0.127940          0.294593
 Vib (V=0)   27  0.132950D+01          0.123688          0.284803
 Vib (V=0)   28  0.131506D+01          0.118945          0.273881
 Vib (V=0)   29  0.130585D+01          0.115892          0.266852
 Vib (V=0)   30  0.129542D+01          0.112411          0.258837
 Vib (V=0)   31  0.127761D+01          0.106398          0.244990
 Vib (V=0)   32  0.126425D+01          0.101834          0.234481
 Vib (V=0)   33  0.118634D+01          0.074211          0.170877
 Vib (V=0)   34  0.116893D+01          0.067789          0.156091
 Vib (V=0)   35  0.115142D+01          0.061234          0.140997
 Vib (V=0)   36  0.114023D+01          0.056991          0.131228
 Vib (V=0)   37  0.112032D+01          0.049343          0.113617
 Vib (V=0)   38  0.111735D+01          0.048188          0.110957
 Vib (V=0)   39  0.111590D+01          0.047626          0.109663
 Vib (V=0)   40  0.111381D+01          0.046812          0.107788
 Vib (V=0)   41  0.111215D+01          0.046164          0.106296
 Vib (V=0)   42  0.111096D+01          0.045698          0.105224
 Vib (V=0)   43  0.109223D+01          0.038316          0.088225
 Vib (V=0)   44  0.109091D+01          0.037790          0.087015
 Vib (V=0)   45  0.108824D+01          0.036723          0.084559
 Vib (V=0)   46  0.108697D+01          0.036217          0.083392
 Vib (V=0)   47  0.108197D+01          0.034217          0.078788
 Vib (V=0)   48  0.107630D+01          0.031934          0.073531
 Vib (V=0)   49  0.107155D+01          0.030013          0.069108
 Vib (V=0)   50  0.106710D+01          0.028207          0.064948
 Vib (V=0)   51  0.106171D+01          0.026006          0.059880
 Vib (V=0)   52  0.105825D+01          0.024589          0.056619
 Vib (V=0)   53  0.105426D+01          0.022949          0.052842
 Vib (V=0)   54  0.105316D+01          0.022494          0.051794
 Electronic      0.100000D+01          0.000000          0.000000
 Translational   0.430330D+09          8.633801         19.880062
 Rotational      0.447520D+08          7.650812         17.616646
 ***** Axes restored to original set *****
 -------------------------------------------------------------------
 Center     Atomic                   Forces (Hartrees/Bohr)
 Number     Number              X              Y              Z
 -------------------------------------------------------------------
      1        6          -0.000000921    0.000000320   -0.000001804
      2        6          -0.000000055   -0.000000418    0.000002534
      3        6           0.000000257   -0.000000112    0.000003258
      4        6          -0.000003217    0.000001314    0.000000392
      5        6          -0.000002495   -0.000002691    0.000000932
      6        6           0.000002513    0.000001213    0.000007286
      7        6          -0.000006159   -0.000001243    0.000000552
      8        8           0.000000511   -0.000000017   -0.000004615
      9        8          -0.000001306    0.000000327    0.000005133
     10       16          -0.000018415    0.000007307   -0.000002228
     11        7          -0.000001028   -0.000011642   -0.000001222
     12        8           0.000021121   -0.000001053    0.000009599
     13        6           0.000000916   -0.000002135   -0.000000763
     14        6          -0.000000276   -0.000000354   -0.000001788
     15        6           0.000000294    0.000000034    0.000000221
     16        6           0.000000145   -0.000000503   -0.000000128
     17        6          -0.000001153   -0.000000482    0.000000145
     18        8           0.000000487   -0.000000381   -0.000004233
     19        6          -0.000002049   -0.000008712   -0.000001683
     20        6          -0.000000432    0.000009416    0.000000168
     21        8          -0.000004883   -0.000008908    0.000005575
     22        6           0.000013334    0.000006430   -0.000000178
     23        7          -0.000003067   -0.000007697   -0.000006400
     24        6           0.000002940   -0.000000731   -0.000000570
     25        7           0.000003614    0.000011864    0.000011113
     26        6           0.000001246    0.000000487   -0.000002160
     27        6           0.000001362   -0.000002443    0.000001503
     28       15          -0.000006295   -0.000000083   -0.000006047
     29        6          -0.000000502    0.000000980    0.000000200
     30        6           0.000000429   -0.000000386   -0.000000427
     31        6           0.000000691   -0.000000334   -0.000000683
     32        6           0.000001538   -0.000001011   -0.000000921
     33        6          -0.000002165    0.000000248   -0.000000195
     34        6           0.000000420   -0.000002172   -0.000002740
     35        6           0.000001194    0.000000924   -0.000001092
     36        6          -0.000000836    0.000001565   -0.000000459
     37        6           0.000002550   -0.000002392   -0.000002296
     38        6          -0.000002561   -0.000000341    0.000000681
     39        6          -0.000000160    0.000005017    0.000000180
     40        6          -0.000000918   -0.000000173    0.000000336
     41        6          -0.000001028    0.000001476    0.000000414
     42        6          -0.000000020    0.000000926   -0.000000022
     43        6          -0.000000240    0.000001970   -0.000002315
     44        1          -0.000000137    0.000000136    0.000001734
     45        1          -0.000000566    0.000000908    0.000001440
     46        1          -0.000000802    0.000000152    0.000002064
     47        1           0.000000067   -0.000000924    0.000003254
     48        1           0.000000881   -0.000000222   -0.000000644
     49        1           0.000004732   -0.000001481   -0.000000664
     50        1           0.000000713    0.000000486   -0.000000442
     51        1           0.000000991   -0.000001013   -0.000000984
     52        1           0.000000315   -0.000000315   -0.000000954
     53        1          -0.000000207    0.000000402   -0.000000514
     54        1           0.000000648    0.000000123    0.000000183
     55        1          -0.000000859    0.000000678   -0.000001593
     56        1           0.000000184   -0.000000257   -0.000000882
     57        1           0.000000187   -0.000000844   -0.000000332
     58        1           0.000000340   -0.000001133   -0.000000040
     59        1          -0.000000763   -0.000000690    0.000001060
     60        1          -0.000000236    0.000001626   -0.000001100
     61        1           0.000000153    0.000000568   -0.000002192
     62        1           0.000000024    0.000000382   -0.000002565
     63        1          -0.000000159    0.000000955   -0.000001060
     64        1           0.000001591   -0.000000207   -0.000001906
     65        1          -0.000000365   -0.000000257    0.000000329
     66        1          -0.000000273    0.000001238    0.000000567
     67        1          -0.000000652    0.000001929    0.000000175
     68        1          -0.000000683    0.000001696   -0.000000422
     69        1          -0.000000507    0.000000660    0.000000237
 -------------------------------------------------------------------
 Cartesian Forces:  Max     0.000021121 RMS     0.000003483
 FormGI is forming the generalized inverse of G from B-inverse, IUseBI=4.

 ----------------------------------------------------------------------

 Electric dipole moment (input orientation):
 (Debye = 10**-18 statcoulomb cm , SI units = C m)
                  (au)            (Debye)         (10**-30 SI)
   Tot        0.543370D+01      0.138111D+02      0.460688D+02
   x         -0.243127D+01     -0.617966D+01     -0.206131D+02
   y          0.330888D+01      0.841032D+01      0.280538D+02
   z          0.355885D+01      0.904569D+01      0.301732D+02

 Dipole polarizability, Alpha (input orientation).
 (esu units = cm**3 , SI units = C**2 m**2 J**-1)
 Alpha(0;0):
               (au)            (10**-24 esu)      (10**-40 SI)
   iso        0.505319D+03      0.748806D+02      0.833159D+02
   aniso      0.614404D+02      0.910452D+01      0.101301D+02
   xx         0.487697D+03      0.722693D+02      0.804104D+02
   yx        -0.103096D+02     -0.152773D+01     -0.169982D+01
   yy         0.512304D+03      0.759156D+02      0.844675D+02
   zx         0.214352D+01      0.317636D+00      0.353418D+00
   zy         0.301859D+02      0.447308D+01      0.497697D+01
   zz         0.515957D+03      0.764569D+02      0.850698D+02

 ----------------------------------------------------------------------

 Dipole orientation:
     6          5.52853190         -5.59309052         -1.79267204
     6          7.56885620         -7.13779756         -2.37330554
     6          8.44645156         -7.27187314         -4.85314975
     6          7.27045240         -5.87693391         -6.73912722
     6          5.23252054         -4.34517399         -6.11658232
     6          4.33261713         -4.14853440         -3.64814677
     6          2.06503409         -2.52051754         -2.95785109
     8          1.06119908          0.06317502         -9.66410764
     8         -0.33503130         -4.08975691         -7.85101874
    16          1.34488652         -1.92549212         -7.82542390
     7          1.63786047         -0.66723450         -4.99643482
     8          4.20944961         -2.96210352         -8.12486662
     6          4.98273493          7.16487409          1.68934431
     6          6.58752653          8.60265133          3.18985741
     6          8.71395938          7.49192816          4.27820593
     6          9.23855063          4.94349396          3.86118887
     6          7.63564924          3.49792980          2.36320349
     8          1.70326132          3.92963807         -1.07486594
     6          5.50137948          4.61032307          1.27614550
     6          3.64918458          3.11031622         -0.19273461
     8          4.37566171          0.66025241         -0.52695267
     6          2.41524555         -1.07289688         -0.56053375
     7          0.99799094         -1.41950750          1.35564801
     6         -3.68323122          1.00687924          4.49604563
     7          1.54605225          0.10959739          3.37842261
     6          0.50290981          2.29087677          7.88882513
     6         -1.03373454         -2.99799839          7.12867530
    15         -0.57741149          0.02571254          5.57595222
     6         -5.90551925          0.30707590          5.74329835
     6         -8.22718941          1.19237390          4.88262103
     6         -8.33642601          2.76232700          2.77195261
     6         -6.12565717          3.45095141          1.51846518
     6         -3.79715166          2.58074102          2.37455761
     6         -1.08096815          3.02936614          9.87171996
     6         -0.24309533          4.79478237         11.62825824
     6          2.16527568          5.83868060         11.40067870
     6          3.73871058          5.11307265          9.42023718
     6          2.91749442          3.33613660          7.66435028
     6         -2.25030225         -4.93480779          5.79382484
     6         -2.46841382         -7.32740649          6.85583927
     6         -1.47784352         -7.80203767          9.25033224
     6         -0.25982209         -5.88582031         10.57952749
     6         -0.02786196         -3.48840493          9.52128763
     1          4.84084541         -5.47631655          0.13830567
     1          8.47410107         -8.23140967         -0.89448284
     1         10.04244831         -8.46888138         -5.32632094
     1          7.90140086         -5.95190575         -8.68738841
     1          0.40643712         -3.73366527         -2.68043622
     1          0.27066371          0.63174398         -4.61706737
     1          3.30632619          7.99200938          0.84824908
     1          6.17767867         10.58496656          3.51936824
     1          9.96480088          8.61393438          5.45602945
     1         10.89288754          4.08047992          4.71263815
     1          8.00823939          1.50699732          2.06022003
     1         -5.83548301         -0.94421994          7.36921486
     1         -9.94977827          0.64611824          5.85283631
     1        -10.15054319          3.44356625          2.09765450
     1         -6.21374898          4.66453914         -0.13296871
     1         -2.07019961          3.10564349          1.39362495
     1         -2.96985558          2.24294830         10.04656698
     1         -1.47397869          5.36507211         13.16636265
     1          2.80972401          7.22622955         12.76787499
     1          5.60928171          5.93268509          9.22497902
     1          4.12134405          2.77132330          6.10597321
     1         -3.02638469         -4.57046012          3.92923783
     1         -3.41467015         -8.82130008          5.81678540
     1         -1.65659307         -9.66992817         10.07985640
     1          0.51212914         -6.25362615         12.44389285
     1          0.92939609         -2.00439701         10.56559987

 Electric dipole moment (dipole orientation):
 (Debye = 10**-18 statcoulomb cm , SI units = C m)
                  (au)            (Debye)         (10**-30 SI)
   Tot        0.543370D+01      0.138111D+02      0.460688D+02
   x          0.000000D+00      0.000000D+00      0.000000D+00
   y          0.000000D+00      0.000000D+00      0.000000D+00
   z          0.543370D+01      0.138111D+02      0.460688D+02

 Dipole polarizability, Alpha (dipole orientation).
 (esu units = cm**3 , SI units = C**2 m**2 J**-1)
 Alpha(0;0):
               (au)            (10**-24 esu)      (10**-40 SI)
   iso        0.505319D+03      0.748806D+02      0.833159D+02
   aniso      0.614404D+02      0.910452D+01      0.101301D+02
   xx         0.497172D+03      0.736732D+02      0.819725D+02
   yx        -0.540353D+01     -0.800721D+00     -0.890922D+00
   yy         0.481402D+03      0.713364D+02      0.793724D+02
   zx         0.182742D+02      0.270796D+01      0.301301D+01
   zy         0.786351D+01      0.116525D+01      0.129652D+01
   zz         0.537385D+03      0.796323D+02      0.886028D+02

 ----------------------------------------------------------------------

 This type of calculation cannot be archived.


 DIATOMIC MOLECULES ARE PECULIAR BECAUSE THEY ONLY HAVE TWO ENDS,
 AND THESE ENDS ARE VERY CLOSE TOGETHER.
 KLAUS RUEDENBERG, REV.MOD.PHYS. PG 176, 32, (1960)
 Job cpu time:       0 days  0 hours  0 minutes  2.7 seconds.
 Elapsed time:       0 days  0 hours  0 minutes  0.8 seconds.
 File lengths (MBytes):  RWF=     10 Int=      0 D2E=      0 Chk=     12 Scr=      1
 Normal termination of Gaussian 16 at Sat Apr  4 19:48:48 2020.
