 Entering Gaussian System, Link 0=g16
 Initial command:
 /apps/cent7/gaussian/g16-A.03/g16-haswell/g16/l1.exe "/scratch/brown/finej/0051_imine_mechanism/ts_631gd/cyclic_complete_2/new_logs_2/Gau-213229.inp" -scrdir="/scratch/brown/finej/0051_imine_mechanism/ts_631gd/cyclic_complete_2/new_logs_2/"
 Entering Link 1 = /apps/cent7/gaussian/g16-A.03/g16-haswell/g16/l1.exe PID=    213230.
  
 Copyright (c) 1988,1990,1992,1993,1995,1998,2003,2009,2016,
            Gaussian, Inc.  All Rights Reserved.
  
 This is part of the Gaussian(R) 16 program.  It is based on
 the Gaussian(R) 09 system (copyright 2009, Gaussian, Inc.),
 the Gaussian(R) 03 system (copyright 2003, Gaussian, Inc.),
 the Gaussian(R) 98 system (copyright 1998, Gaussian, Inc.),
 the Gaussian(R) 94 system (copyright 1995, Gaussian, Inc.),
 the Gaussian 92(TM) system (copyright 1992, Gaussian, Inc.),
 the Gaussian 90(TM) system (copyright 1990, Gaussian, Inc.),
 the Gaussian 88(TM) system (copyright 1988, Gaussian, Inc.),
 the Gaussian 86(TM) system (copyright 1986, Carnegie Mellon
 University), and the Gaussian 82(TM) system (copyright 1983,
 Carnegie Mellon University). Gaussian is a federally registered
 trademark of Gaussian, Inc.
  
 This software contains proprietary and confidential information,
 including trade secrets, belonging to Gaussian, Inc.
  
 This software is provided under written license and may be
 used, copied, transmitted, or stored only in accord with that
 written license.
  
 The following legend is applicable only to US Government
 contracts under FAR:
  
                    RESTRICTED RIGHTS LEGEND
  
 Use, reproduction and disclosure by the US Government is
 subject to restrictions as set forth in subparagraphs (a)
 and (c) of the Commercial Computer Software - Restricted
 Rights clause in FAR 52.227-19.
  
 Gaussian, Inc.
 340 Quinnipiac St., Bldg. 40, Wallingford CT 06492
  
  
 ---------------------------------------------------------------
 Warning -- This program may not be used in any manner that
 competes with the business of Gaussian, Inc. or will provide
 assistance to any competitor of Gaussian, Inc.  The licensee
 of this program is prohibited from giving any competitor of
 Gaussian, Inc. access to this program.  By using this program,
 the user acknowledges that Gaussian, Inc. is engaged in the
 business of creating and licensing software in the field of
 computational chemistry and represents and warrants to the
 licensee that it is not a competitor of Gaussian, Inc. and that
 it will not use this program in any manner prohibited above.
 ---------------------------------------------------------------
  

 Cite this work as:
 Gaussian 16, Revision A.03,
 M. J. Frisch, G. W. Trucks, H. B. Schlegel, G. E. Scuseria, 
 M. A. Robb, J. R. Cheeseman, G. Scalmani, V. Barone, 
 G. A. Petersson, H. Nakatsuji, X. Li, M. Caricato, A. V. Marenich, 
 J. Bloino, B. G. Janesko, R. Gomperts, B. Mennucci, H. P. Hratchian, 
 J. V. Ortiz, A. F. Izmaylov, J. L. Sonnenberg, D. Williams-Young, 
 F. Ding, F. Lipparini, F. Egidi, J. Goings, B. Peng, A. Petrone, 
 T. Henderson, D. Ranasinghe, V. G. Zakrzewski, J. Gao, N. Rega, 
 G. Zheng, W. Liang, M. Hada, M. Ehara, K. Toyota, R. Fukuda, 
 J. Hasegawa, M. Ishida, T. Nakajima, Y. Honda, O. Kitao, H. Nakai, 
 T. Vreven, K. Throssell, J. A. Montgomery, Jr., J. E. Peralta, 
 F. Ogliaro, M. J. Bearpark, J. J. Heyd, E. N. Brothers, K. N. Kudin, 
 V. N. Staroverov, T. A. Keith, R. Kobayashi, J. Normand, 
 K. Raghavachari, A. P. Rendell, J. C. Burant, S. S. Iyengar, 
 J. Tomasi, M. Cossi, J. M. Millam, M. Klene, C. Adamo, R. Cammi, 
 J. W. Ochterski, R. L. Martin, K. Morokuma, O. Farkas, 
 J. B. Foresman, and D. J. Fox, Gaussian, Inc., Wallingford CT, 2016.
 
 ******************************************
 Gaussian 16:  ES64L-G16RevA.03 25-Dec-2016
                 4-Apr-2020 
 ******************************************
 %nprocshared=4
 Will use up to    4 processors via shared memory.
 %mem=1GB
 %oldchk=chk/cyclic_2.chk
 Copying data from "chk/cyclic_2.chk" to current chk file "/scratch/brown/finej/0051_imine_mechanism/ts_631gd/cyclic_complete_2/new_logs_2/Gau-213230.chk"
 IOpt=  2 FromEx=T IUOpen= 4 IOptOp= 5 NList=   0 IFRang= 0 IUIn= 4 IUOut= 2.
 ----------------------------------------------------------------------
 # freq=readfc wb97xd/6-31g(d) scrf=solvent=dichloromethane geom=check 
 temperature=263.15
 ----------------------------------------------------------------------
 1/29=2,38=1,112=263150,172=1/1;
 2/12=2,40=1/2;
 7/8=1,25=11/16;
 99/5=2/99;
 --------------
 Intermediate 1
 --------------
 Structure from the checkpoint file:  "/scratch/brown/finej/0051_imine_mechanism/ts_631gd/cyclic_complete_2/new_logs_2/Gau-213230.chk"
 Charge =  0 Multiplicity = 1
 Redundant internal coordinates found in file.  (old form).
 C,0,-2.360405064,2.4645607242,-0.2289467836
 C,0,-2.4440186953,3.0364298723,1.0335349883
 C,0,-2.9666105725,2.2853161404,2.0874518025
 C,0,-3.4058638838,0.9871541927,1.8750983945
 C,0,-3.3117036625,0.4143493997,0.6054021165
 C,0,-2.7812924558,1.1533371034,-0.4577289996
 C,0,-2.6554941457,0.519643898,-1.8382104199
 O,0,-2.3409378038,-2.395364757,-0.8313932651
 O,0,-4.8068753065,-2.4697716037,-1.0809128764
 S,0,-3.6002971146,-1.6636271902,-1.0086232188
 N,0,-3.6055512728,-0.5329025782,-2.0842635363
 O,0,-3.7670212268,-0.868714376,0.4904353672
 C,0,-1.212798421,0.0937330012,-1.9318095036
 N,0,-0.1508223329,-0.3195925019,-1.7488635277
 C,0,2.1795596618,1.5122134449,-0.41052595
 N,0,1.0224064281,-0.8460276696,-1.5769093577
 C,0,0.8480742188,-0.4506880235,1.2576307402
 C,0,3.3368592866,-1.197711977,-0.2033742225
 P,0,1.8158270764,-0.2482149425,-0.2493431499
 C,0,1.172214303,2.4413868254,-0.1191056366
 C,0,1.3950191866,3.7948417484,-0.3421820199
 C,0,2.6198702173,4.2248617935,-0.8484293743
 C,0,3.624172995,3.3027256813,-1.135119787
 C,0,3.4070497615,1.9455960251,-0.9222103408
 C,0,-0.1938805879,-1.3829276885,1.2662150829
 C,0,-0.9708458416,-1.5340602673,2.4097911692
 C,0,-0.7004613014,-0.7734611206,3.5431304236
 C,0,0.3435873948,0.1508217195,3.5384726825
 C,0,1.1145414702,0.3230377509,2.3955699288
 C,0,3.9383139215,-1.4893298706,1.0244624356
 C,0,5.141252277,-2.1864682123,1.0510613094
 C,0,5.7393773055,-2.5905514559,-0.1400974931
 C,0,5.1369676715,-2.3025303291,-1.3632270592
 C,0,3.9348074637,-1.6054036334,-1.401490462
 H,0,-1.9560059471,3.0377589327,-1.0602891716
 H,0,-2.1111148873,4.0564580547,1.1948645878
 H,0,-3.0372109918,2.7156840521,3.0814833735
 H,0,-3.8173515039,0.3910375033,2.6825057514
 H,0,-2.8024606747,1.2848846637,-2.6059605616
 H,0,0.2210957363,2.1173374505,0.2938049215
 H,0,0.6132272587,4.5125972318,-0.115084356
 H,0,2.7939603615,5.2829091521,-1.0167570337
 H,0,4.5794227396,3.6397845929,-1.5237682303
 H,0,4.1926471568,1.2311124844,-1.1480328422
 H,0,-0.4311671125,-1.9676994411,0.3837057639
 H,0,-1.7994246377,-2.2335060544,2.3986114799
 H,0,-1.311976893,-0.8911426617,4.4322584828
 H,0,0.5489150444,0.7481718618,4.4206202921
 H,0,1.908063355,1.0646470349,2.3874107982
 H,0,3.4690802144,-1.18751631,1.9557825872
 H,0,5.6070212143,-2.4185951363,2.0029317413
 H,0,6.6769651457,-3.1367803891,-0.1154726893
 H,0,5.6012619404,-2.6238557598,-2.2896321789
 H,0,3.4573924655,-1.3883143594,-2.3512367573
 Recover connectivity data from disk.
                           ----------------------------
                           !    Current Parameters    !
                           ! (Angstroms and Degrees)  !
 --------------------------                            --------------------------
 ! Name  Definition              Value          Derivative Info.                !
 --------------------------------------------------------------------------------
 ! R1    R(1,2)                  1.3885         estimate D2E/DX2                !
 ! R2    R(1,6)                  1.396          estimate D2E/DX2                !
 ! R3    R(1,35)                 1.0878         estimate D2E/DX2                !
 ! R4    R(2,3)                  1.3957         estimate D2E/DX2                !
 ! R5    R(2,36)                 1.085          estimate D2E/DX2                !
 ! R6    R(3,4)                  1.3868         estimate D2E/DX2                !
 ! R7    R(3,37)                 1.0855         estimate D2E/DX2                !
 ! R8    R(4,5)                  1.3961         estimate D2E/DX2                !
 ! R9    R(4,38)                 1.0847         estimate D2E/DX2                !
 ! R10   R(5,6)                  1.3992         estimate D2E/DX2                !
 ! R11   R(5,12)                 1.3663         estimate D2E/DX2                !
 ! R12   R(6,7)                  1.5242         estimate D2E/DX2                !
 ! R13   R(7,11)                 1.4391         estimate D2E/DX2                !
 ! R14   R(7,13)                 1.5072         estimate D2E/DX2                !
 ! R15   R(7,39)                 1.0939         estimate D2E/DX2                !
 ! R16   R(8,10)                 1.4673         estimate D2E/DX2                !
 ! R17   R(9,10)                 1.4529         estimate D2E/DX2                !
 ! R18   R(10,11)                1.5606         estimate D2E/DX2                !
 ! R19   R(10,12)                1.705          estimate D2E/DX2                !
 ! R20   R(13,14)                1.1542         estimate D2E/DX2                !
 ! R21   R(14,16)                1.2974         estimate D2E/DX2                !
 ! R22   R(15,19)                1.8048         estimate D2E/DX2                !
 ! R23   R(15,20)                1.4011         estimate D2E/DX2                !
 ! R24   R(15,24)                1.3987         estimate D2E/DX2                !
 ! R25   R(16,19)                1.6581         estimate D2E/DX2                !
 ! R26   R(17,19)                1.8024         estimate D2E/DX2                !
 ! R27   R(17,25)                1.3981         estimate D2E/DX2                !
 ! R28   R(17,29)                1.4016         estimate D2E/DX2                !
 ! R29   R(18,19)                1.7937         estimate D2E/DX2                !
 ! R30   R(18,30)                1.398          estimate D2E/DX2                !
 ! R31   R(18,34)                1.3997         estimate D2E/DX2                !
 ! R32   R(20,21)                1.3897         estimate D2E/DX2                !
 ! R33   R(20,40)                1.0863         estimate D2E/DX2                !
 ! R34   R(21,22)                1.3934         estimate D2E/DX2                !
 ! R35   R(21,41)                1.0853         estimate D2E/DX2                !
 ! R36   R(22,23)                1.3933         estimate D2E/DX2                !
 ! R37   R(22,42)                1.0854         estimate D2E/DX2                !
 ! R38   R(23,24)                1.3908         estimate D2E/DX2                !
 ! R39   R(23,43)                1.085          estimate D2E/DX2                !
 ! R40   R(24,44)                1.0857         estimate D2E/DX2                !
 ! R41   R(25,26)                1.3908         estimate D2E/DX2                !
 ! R42   R(25,45)                1.0849         estimate D2E/DX2                !
 ! R43   R(26,27)                1.3914         estimate D2E/DX2                !
 ! R44   R(26,46)                1.0844         estimate D2E/DX2                !
 ! R45   R(27,28)                1.3944         estimate D2E/DX2                !
 ! R46   R(27,47)                1.0855         estimate D2E/DX2                !
 ! R47   R(28,29)                1.3893         estimate D2E/DX2                !
 ! R48   R(28,48)                1.085          estimate D2E/DX2                !
 ! R49   R(29,49)                1.0862         estimate D2E/DX2                !
 ! R50   R(30,31)                1.3906         estimate D2E/DX2                !
 ! R51   R(30,50)                1.0856         estimate D2E/DX2                !
 ! R52   R(31,32)                1.3928         estimate D2E/DX2                !
 ! R53   R(31,51)                1.0848         estimate D2E/DX2                !
 ! R54   R(32,33)                1.3935         estimate D2E/DX2                !
 ! R55   R(32,52)                1.0854         estimate D2E/DX2                !
 ! R56   R(33,34)                1.3902         estimate D2E/DX2                !
 ! R57   R(33,53)                1.0849         estimate D2E/DX2                !
 ! R58   R(34,54)                1.0849         estimate D2E/DX2                !
 ! A1    A(2,1,6)              121.179          estimate D2E/DX2                !
 ! A2    A(2,1,35)             120.0177         estimate D2E/DX2                !
 ! A3    A(6,1,35)             118.8024         estimate D2E/DX2                !
 ! A4    A(1,2,3)              119.1754         estimate D2E/DX2                !
 ! A5    A(1,2,36)             120.2587         estimate D2E/DX2                !
 ! A6    A(3,2,36)             120.5652         estimate D2E/DX2                !
 ! A7    A(2,3,4)              120.4459         estimate D2E/DX2                !
 ! A8    A(2,3,37)             120.1637         estimate D2E/DX2                !
 ! A9    A(4,3,37)             119.3897         estimate D2E/DX2                !
 ! A10   A(3,4,5)              120.1295         estimate D2E/DX2                !
 ! A11   A(3,4,38)             121.3732         estimate D2E/DX2                !
 ! A12   A(5,4,38)             118.494          estimate D2E/DX2                !
 ! A13   A(4,5,6)              119.9935         estimate D2E/DX2                !
 ! A14   A(4,5,12)             116.0619         estimate D2E/DX2                !
 ! A15   A(6,5,12)             123.9437         estimate D2E/DX2                !
 ! A16   A(1,6,5)              119.0687         estimate D2E/DX2                !
 ! A17   A(1,6,7)              120.9349         estimate D2E/DX2                !
 ! A18   A(5,6,7)              119.9929         estimate D2E/DX2                !
 ! A19   A(6,7,11)             113.8569         estimate D2E/DX2                !
 ! A20   A(6,7,13)             104.6399         estimate D2E/DX2                !
 ! A21   A(6,7,39)             109.496          estimate D2E/DX2                !
 ! A22   A(11,7,13)            114.4963         estimate D2E/DX2                !
 ! A23   A(11,7,39)            107.6349         estimate D2E/DX2                !
 ! A24   A(13,7,39)            106.4216         estimate D2E/DX2                !
 ! A25   A(8,10,9)             116.2374         estimate D2E/DX2                !
 ! A26   A(8,10,11)            116.5818         estimate D2E/DX2                !
 ! A27   A(8,10,12)            102.1369         estimate D2E/DX2                !
 ! A28   A(9,10,11)            111.4025         estimate D2E/DX2                !
 ! A29   A(9,10,12)            102.7813         estimate D2E/DX2                !
 ! A30   A(11,10,12)           105.5375         estimate D2E/DX2                !
 ! A31   A(7,11,10)            114.1954         estimate D2E/DX2                !
 ! A32   A(5,12,10)            118.635          estimate D2E/DX2                !
 ! A33   A(7,13,14)            166.44           estimate D2E/DX2                !
 ! A34   A(19,15,20)           118.9074         estimate D2E/DX2                !
 ! A35   A(19,15,24)           120.7811         estimate D2E/DX2                !
 ! A36   A(20,15,24)           120.1042         estimate D2E/DX2                !
 ! A37   A(14,16,19)           113.1129         estimate D2E/DX2                !
 ! A38   A(19,17,25)           118.6973         estimate D2E/DX2                !
 ! A39   A(19,17,29)           120.9788         estimate D2E/DX2                !
 ! A40   A(25,17,29)           120.3157         estimate D2E/DX2                !
 ! A41   A(19,18,30)           119.8526         estimate D2E/DX2                !
 ! A42   A(19,18,34)           119.6373         estimate D2E/DX2                !
 ! A43   A(30,18,34)           120.4799         estimate D2E/DX2                !
 ! A44   A(15,19,16)           112.1234         estimate D2E/DX2                !
 ! A45   A(15,19,17)           107.005          estimate D2E/DX2                !
 ! A46   A(15,19,18)           110.3485         estimate D2E/DX2                !
 ! A47   A(16,19,17)           111.8391         estimate D2E/DX2                !
 ! A48   A(16,19,18)           103.6177         estimate D2E/DX2                !
 ! A49   A(17,19,18)           111.9891         estimate D2E/DX2                !
 ! A50   A(15,20,21)           119.8169         estimate D2E/DX2                !
 ! A51   A(15,20,40)           120.7116         estimate D2E/DX2                !
 ! A52   A(21,20,40)           119.4656         estimate D2E/DX2                !
 ! A53   A(20,21,22)           119.9888         estimate D2E/DX2                !
 ! A54   A(20,21,41)           119.67           estimate D2E/DX2                !
 ! A55   A(22,21,41)           120.3403         estimate D2E/DX2                !
 ! A56   A(21,22,23)           120.2753         estimate D2E/DX2                !
 ! A57   A(21,22,42)           119.8797         estimate D2E/DX2                !
 ! A58   A(23,22,42)           119.8446         estimate D2E/DX2                !
 ! A59   A(22,23,24)           120.1198         estimate D2E/DX2                !
 ! A60   A(22,23,43)           120.1818         estimate D2E/DX2                !
 ! A61   A(24,23,43)           119.6983         estimate D2E/DX2                !
 ! A62   A(15,24,23)           119.6933         estimate D2E/DX2                !
 ! A63   A(15,24,44)           120.4788         estimate D2E/DX2                !
 ! A64   A(23,24,44)           119.8267         estimate D2E/DX2                !
 ! A65   A(17,25,26)           119.5929         estimate D2E/DX2                !
 ! A66   A(17,25,45)           121.1567         estimate D2E/DX2                !
 ! A67   A(26,25,45)           119.2147         estimate D2E/DX2                !
 ! A68   A(25,26,27)           120.1177         estimate D2E/DX2                !
 ! A69   A(25,26,46)           119.2408         estimate D2E/DX2                !
 ! A70   A(27,26,46)           120.6281         estimate D2E/DX2                !
 ! A71   A(26,27,28)           120.3388         estimate D2E/DX2                !
 ! A72   A(26,27,47)           119.8958         estimate D2E/DX2                !
 ! A73   A(28,27,47)           119.7616         estimate D2E/DX2                !
 ! A74   A(27,28,29)           120.0262         estimate D2E/DX2                !
 ! A75   A(27,28,48)           120.26           estimate D2E/DX2                !
 ! A76   A(29,28,48)           119.7081         estimate D2E/DX2                !
 ! A77   A(17,29,28)           119.6001         estimate D2E/DX2                !
 ! A78   A(17,29,49)           120.6441         estimate D2E/DX2                !
 ! A79   A(28,29,49)           119.7502         estimate D2E/DX2                !
 ! A80   A(18,30,31)           119.5737         estimate D2E/DX2                !
 ! A81   A(18,30,50)           120.6302         estimate D2E/DX2                !
 ! A82   A(31,30,50)           119.7917         estimate D2E/DX2                !
 ! A83   A(30,31,32)           120.0379         estimate D2E/DX2                !
 ! A84   A(30,31,51)           119.6998         estimate D2E/DX2                !
 ! A85   A(32,31,51)           120.2612         estimate D2E/DX2                !
 ! A86   A(31,32,33)           120.3343         estimate D2E/DX2                !
 ! A87   A(31,32,52)           119.8394         estimate D2E/DX2                !
 ! A88   A(33,32,52)           119.8256         estimate D2E/DX2                !
 ! A89   A(32,33,34)           120.1076         estimate D2E/DX2                !
 ! A90   A(32,33,53)           120.2165         estimate D2E/DX2                !
 ! A91   A(34,33,53)           119.6755         estimate D2E/DX2                !
 ! A92   A(18,34,33)           119.466          estimate D2E/DX2                !
 ! A93   A(18,34,54)           120.2019         estimate D2E/DX2                !
 ! A94   A(33,34,54)           120.3286         estimate D2E/DX2                !
 ! A95   L(13,14,16,8,-1)      177.8805         estimate D2E/DX2                !
 ! A96   L(13,14,16,8,-2)      177.3953         estimate D2E/DX2                !
 ! D1    D(6,1,2,3)             -0.3976         estimate D2E/DX2                !
 ! D2    D(6,1,2,36)           179.9066         estimate D2E/DX2                !
 ! D3    D(35,1,2,3)           179.96           estimate D2E/DX2                !
 ! D4    D(35,1,2,36)            0.2642         estimate D2E/DX2                !
 ! D5    D(2,1,6,5)              0.8304         estimate D2E/DX2                !
 ! D6    D(2,1,6,7)           -178.4933         estimate D2E/DX2                !
 ! D7    D(35,1,6,5)          -179.5229         estimate D2E/DX2                !
 ! D8    D(35,1,6,7)             1.1534         estimate D2E/DX2                !
 ! D9    D(1,2,3,4)             -0.4527         estimate D2E/DX2                !
 ! D10   D(1,2,3,37)           179.8563         estimate D2E/DX2                !
 ! D11   D(36,2,3,4)           179.2421         estimate D2E/DX2                !
 ! D12   D(36,2,3,37)           -0.4489         estimate D2E/DX2                !
 ! D13   D(2,3,4,5)              0.8565         estimate D2E/DX2                !
 ! D14   D(2,3,4,38)          -179.8098         estimate D2E/DX2                !
 ! D15   D(37,3,4,5)          -179.4501         estimate D2E/DX2                !
 ! D16   D(37,3,4,38)           -0.1165         estimate D2E/DX2                !
 ! D17   D(3,4,5,6)             -0.4129         estimate D2E/DX2                !
 ! D18   D(3,4,5,12)           179.9119         estimate D2E/DX2                !
 ! D19   D(38,4,5,6)          -179.7655         estimate D2E/DX2                !
 ! D20   D(38,4,5,12)            0.5592         estimate D2E/DX2                !
 ! D21   D(4,5,6,1)             -0.4205         estimate D2E/DX2                !
 ! D22   D(4,5,6,7)            178.9097         estimate D2E/DX2                !
 ! D23   D(12,5,6,1)           179.2278         estimate D2E/DX2                !
 ! D24   D(12,5,6,7)            -1.442          estimate D2E/DX2                !
 ! D25   D(4,5,12,10)         -176.4961         estimate D2E/DX2                !
 ! D26   D(6,5,12,10)            3.843          estimate D2E/DX2                !
 ! D27   D(1,6,7,11)          -154.1763         estimate D2E/DX2                !
 ! D28   D(1,6,7,13)            80.0836         estimate D2E/DX2                !
 ! D29   D(1,6,7,39)           -33.6475         estimate D2E/DX2                !
 ! D30   D(5,6,7,11)            26.5062         estimate D2E/DX2                !
 ! D31   D(5,6,7,13)           -99.2338         estimate D2E/DX2                !
 ! D32   D(5,6,7,39)           147.035          estimate D2E/DX2                !
 ! D33   D(6,7,11,10)          -54.1551         estimate D2E/DX2                !
 ! D34   D(13,7,11,10)          66.1893         estimate D2E/DX2                !
 ! D35   D(39,7,11,10)        -175.7223         estimate D2E/DX2                !
 ! D36   D(6,7,13,14)           43.5448         estimate D2E/DX2                !
 ! D37   D(11,7,13,14)         -81.7934         estimate D2E/DX2                !
 ! D38   D(39,7,13,14)         159.4319         estimate D2E/DX2                !
 ! D39   D(8,10,11,7)          -60.157          estimate D2E/DX2                !
 ! D40   D(9,10,11,7)          163.2011         estimate D2E/DX2                !
 ! D41   D(12,10,11,7)          52.3708         estimate D2E/DX2                !
 ! D42   D(8,10,12,5)           94.7717         estimate D2E/DX2                !
 ! D43   D(9,10,12,5)         -144.3996         estimate D2E/DX2                !
 ! D44   D(11,10,12,5)         -27.5626         estimate D2E/DX2                !
 ! D45   D(7,13,16,19)         -62.9855         estimate D2E/DX2                !
 ! D46   D(20,15,19,16)         81.4583         estimate D2E/DX2                !
 ! D47   D(20,15,19,17)        -41.5154         estimate D2E/DX2                !
 ! D48   D(20,15,19,18)       -163.5906         estimate D2E/DX2                !
 ! D49   D(24,15,19,16)        -93.3147         estimate D2E/DX2                !
 ! D50   D(24,15,19,17)        143.7116         estimate D2E/DX2                !
 ! D51   D(24,15,19,18)         21.6364         estimate D2E/DX2                !
 ! D52   D(19,15,20,21)       -174.6896         estimate D2E/DX2                !
 ! D53   D(19,15,20,40)          6.1957         estimate D2E/DX2                !
 ! D54   D(24,15,20,21)          0.1197         estimate D2E/DX2                !
 ! D55   D(24,15,20,40)       -178.9951         estimate D2E/DX2                !
 ! D56   D(19,15,24,23)        174.9603         estimate D2E/DX2                !
 ! D57   D(19,15,24,44)         -5.4296         estimate D2E/DX2                !
 ! D58   D(20,15,24,23)          0.2497         estimate D2E/DX2                !
 ! D59   D(20,15,24,44)        179.8597         estimate D2E/DX2                !
 ! D60   D(14,16,19,15)        -64.0217         estimate D2E/DX2                !
 ! D61   D(14,16,19,17)         56.179          estimate D2E/DX2                !
 ! D62   D(14,16,19,18)        176.985          estimate D2E/DX2                !
 ! D63   D(25,17,19,15)        141.9641         estimate D2E/DX2                !
 ! D64   D(25,17,19,16)         18.8141         estimate D2E/DX2                !
 ! D65   D(25,17,19,18)        -96.995          estimate D2E/DX2                !
 ! D66   D(29,17,19,15)        -36.9997         estimate D2E/DX2                !
 ! D67   D(29,17,19,16)       -160.1497         estimate D2E/DX2                !
 ! D68   D(29,17,19,18)         84.0411         estimate D2E/DX2                !
 ! D69   D(19,17,25,26)       -178.6351         estimate D2E/DX2                !
 ! D70   D(19,17,25,45)         -0.8262         estimate D2E/DX2                !
 ! D71   D(29,17,25,26)          0.3358         estimate D2E/DX2                !
 ! D72   D(29,17,25,45)        178.1448         estimate D2E/DX2                !
 ! D73   D(19,17,29,28)        179.4826         estimate D2E/DX2                !
 ! D74   D(19,17,29,49)          0.3425         estimate D2E/DX2                !
 ! D75   D(25,17,29,28)          0.5354         estimate D2E/DX2                !
 ! D76   D(25,17,29,49)       -178.6046         estimate D2E/DX2                !
 ! D77   D(30,18,19,15)         91.5579         estimate D2E/DX2                !
 ! D78   D(30,18,19,16)       -148.2346         estimate D2E/DX2                !
 ! D79   D(30,18,19,17)        -27.53           estimate D2E/DX2                !
 ! D80   D(34,18,19,15)        -86.4549         estimate D2E/DX2                !
 ! D81   D(34,18,19,16)         33.7525         estimate D2E/DX2                !
 ! D82   D(34,18,19,17)        154.4572         estimate D2E/DX2                !
 ! D83   D(19,18,30,31)       -177.8165         estimate D2E/DX2                !
 ! D84   D(19,18,30,50)          2.94           estimate D2E/DX2                !
 ! D85   D(34,18,30,31)          0.1794         estimate D2E/DX2                !
 ! D86   D(34,18,30,50)       -179.0642         estimate D2E/DX2                !
 ! D87   D(19,18,34,33)        177.8622         estimate D2E/DX2                !
 ! D88   D(19,18,34,54)         -2.8221         estimate D2E/DX2                !
 ! D89   D(30,18,34,33)         -0.1379         estimate D2E/DX2                !
 ! D90   D(30,18,34,54)        179.1777         estimate D2E/DX2                !
 ! D91   D(15,20,21,22)         -0.3002         estimate D2E/DX2                !
 ! D92   D(15,20,21,41)       -179.9669         estimate D2E/DX2                !
 ! D93   D(40,20,21,22)        178.8256         estimate D2E/DX2                !
 ! D94   D(40,20,21,41)         -0.841          estimate D2E/DX2                !
 ! D95   D(20,21,22,23)          0.1124         estimate D2E/DX2                !
 ! D96   D(20,21,22,42)       -179.6582         estimate D2E/DX2                !
 ! D97   D(41,21,22,23)        179.7768         estimate D2E/DX2                !
 ! D98   D(41,21,22,42)          0.0062         estimate D2E/DX2                !
 ! D99   D(21,22,23,24)          0.2597         estimate D2E/DX2                !
 ! D100  D(21,22,23,43)       -179.6393         estimate D2E/DX2                !
 ! D101  D(42,22,23,24)       -179.9696         estimate D2E/DX2                !
 ! D102  D(42,22,23,43)          0.1314         estimate D2E/DX2                !
 ! D103  D(22,23,24,15)         -0.4385         estimate D2E/DX2                !
 ! D104  D(22,23,24,44)        179.9489         estimate D2E/DX2                !
 ! D105  D(43,23,24,15)        179.461          estimate D2E/DX2                !
 ! D106  D(43,23,24,44)         -0.1516         estimate D2E/DX2                !
 ! D107  D(17,25,26,27)         -0.8195         estimate D2E/DX2                !
 ! D108  D(17,25,26,46)        177.8566         estimate D2E/DX2                !
 ! D109  D(45,25,26,27)       -178.6713         estimate D2E/DX2                !
 ! D110  D(45,25,26,46)          0.0049         estimate D2E/DX2                !
 ! D111  D(25,26,27,28)          0.4352         estimate D2E/DX2                !
 ! D112  D(25,26,27,47)        179.7264         estimate D2E/DX2                !
 ! D113  D(46,26,27,28)       -178.2224         estimate D2E/DX2                !
 ! D114  D(46,26,27,47)          1.0688         estimate D2E/DX2                !
 ! D115  D(26,27,28,29)          0.4445         estimate D2E/DX2                !
 ! D116  D(26,27,28,48)        179.5727         estimate D2E/DX2                !
 ! D117  D(47,27,28,29)       -178.8477         estimate D2E/DX2                !
 ! D118  D(47,27,28,48)          0.2805         estimate D2E/DX2                !
 ! D119  D(27,28,29,17)         -0.9229         estimate D2E/DX2                !
 ! D120  D(27,28,29,49)        178.2249         estimate D2E/DX2                !
 ! D121  D(48,28,29,17)        179.944          estimate D2E/DX2                !
 ! D122  D(48,28,29,49)         -0.9081         estimate D2E/DX2                !
 ! D123  D(18,30,31,32)         -0.0405         estimate D2E/DX2                !
 ! D124  D(18,30,31,51)       -179.6666         estimate D2E/DX2                !
 ! D125  D(50,30,31,32)        179.2095         estimate D2E/DX2                !
 ! D126  D(50,30,31,51)         -0.4166         estimate D2E/DX2                !
 ! D127  D(30,31,32,33)         -0.1392         estimate D2E/DX2                !
 ! D128  D(30,31,32,52)       -179.8394         estimate D2E/DX2                !
 ! D129  D(51,31,32,33)        179.4848         estimate D2E/DX2                !
 ! D130  D(51,31,32,52)         -0.2153         estimate D2E/DX2                !
 ! D131  D(31,32,33,34)          0.181          estimate D2E/DX2                !
 ! D132  D(31,32,33,53)       -179.5998         estimate D2E/DX2                !
 ! D133  D(52,32,33,34)        179.8812         estimate D2E/DX2                !
 ! D134  D(52,32,33,53)          0.1004         estimate D2E/DX2                !
 ! D135  D(32,33,34,18)         -0.0423         estimate D2E/DX2                !
 ! D136  D(32,33,34,54)       -179.357          estimate D2E/DX2                !
 ! D137  D(53,33,34,18)        179.7398         estimate D2E/DX2                !
 ! D138  D(53,33,34,54)          0.425          estimate D2E/DX2                !
 --------------------------------------------------------------------------------
 Stoichiometry    C26H20N3O3PS
 Framework group  C1[X(C26H20N3O3PS)]
 Deg. of freedom   156
 Full point group                 C1      NOp   1
 Largest Abelian subgroup         C1      NOp   1
 Largest concise Abelian subgroup C1      NOp   1
                         Standard orientation:                         
 ---------------------------------------------------------------------
 Center     Atomic      Atomic             Coordinates (Angstroms)
 Number     Number       Type             X           Y           Z
 ---------------------------------------------------------------------
      1          6           0       -2.426659    2.389167   -0.481413
      2          6           0       -2.547055    3.043329    0.737383
      3          6           0       -3.085574    2.357696    1.827300
      4          6           0       -3.504177    1.042406    1.692962
      5          6           0       -3.373055    0.386969    0.467275
      6          6           0       -2.826356    1.059991   -0.630836
      7          6           0       -2.660250    0.336797   -1.962196
      8          8           0       -2.335047   -2.499536   -0.754155
      9          8           0       -4.793297   -2.623742   -1.054527
     10         16           0       -3.598456   -1.798381   -1.009136
     11          7           0       -3.591598   -0.742598   -2.158416
     12          8           0       -3.810211   -0.906936    0.428690
     13          6           0       -1.210771   -0.074962   -1.993779
     14          7           0       -0.148600   -0.460727   -1.759091
     15          6           0        2.127351    1.488029   -0.494282
     16          7           0        1.026392   -0.958576   -1.525191
     17          6           0        0.780044   -0.376206    1.271497
     18          6           0        3.311565   -1.186036   -0.078395
     19         15           0        1.780864   -0.262346   -0.223129
     20          6           0        1.102378    2.421015   -0.289343
     21          6           0        1.314300    3.759318   -0.598017
     22          6           0        2.545634    4.170842   -1.103911
     23          6           0        3.567369    3.245152   -1.304677
     24          6           0        3.361412    1.902578   -1.005766
     25          6           0       -0.250653   -1.319719    1.319050
     26          6           0       -1.052726   -1.404187    2.452110
     27          6           0       -0.818426   -0.565640    3.537476
     28          6           0        0.214366    0.370227    3.494424
     29          6           0        1.010163    0.475693    2.360476
     30          6           0        3.887094   -1.386432    1.179770
     31          6           0        5.097271   -2.063941    1.280877
     32          6           0        5.728305   -2.538990    0.133697
     33          6           0        5.151752   -2.341880   -1.119552
     34          6           0        3.942631   -1.665155   -1.232275
     35          1           0       -2.009464    2.910653   -1.340031
     36          1           0       -2.230242    4.076279    0.837146
     37          1           0       -3.184897    2.852840    2.788168
     38          1           0       -3.927616    0.496353    2.529090
     39          1           0       -2.798022    1.046716   -2.782968
     40          1           0        0.145637    2.112635    0.122578
     41          1           0        0.518845    4.480103   -0.437812
     42          1           0        2.711073    5.217450   -1.339172
     43          1           0        4.527508    3.568196   -1.693180
     44          1           0        4.160601    1.185194   -1.164833
     45          1           0       -0.459921   -1.965565    0.472779
     46          1           0       -1.872423   -2.113904    2.469140
     47          1           0       -1.449458   -0.631589    4.418270
     48          1           0        0.391545    1.028167    4.338754
     49          1           0        1.794774    1.225704    2.320510
     50          1           0        3.392298   -1.029121    2.077621
     51          1           0        5.543013   -2.225342    2.256656
     52          1           0        6.671476   -3.069652    0.216578
     53          1           0        5.641726   -2.718394   -2.011298
     54          1           0        3.485375   -1.518771   -2.205188
 ---------------------------------------------------------------------
 Rotational constants (GHZ):           0.1790145           0.0921985           0.0825333
 Electric field and nuclear coordinate derivatives read from checkpoint file.
 Rotating derivatives to standard orientation.
 Full mass-weighted force constant matrix:
 Low frequencies ---   -6.8967   -0.0175   -0.0088    0.0165    3.6936    5.8741
 Low frequencies ---   17.6527   27.6766   31.1574
 Diagonal vibrational polarizability:
      186.7490977     137.8977247     181.1661007
 Harmonic frequencies (cm**-1), IR intensities (KM/Mole), Raman scattering
 activities (A**4/AMU), depolarization ratios for plane and unpolarized
 incident light, reduced masses (AMU), force constants (mDyne/A),
 and normal coordinates:
                      1                      2                      3
                      A                      A                      A
 Frequencies --     16.5660                27.6236                31.1175
 Red. masses --      6.7991                 5.5545                 4.5591
 Frc consts  --      0.0011                 0.0025                 0.0026
 IR Inten    --      1.3096                 0.9355                 0.8906
  Atom  AN      X      Y      Z        X      Y      Z        X      Y      Z
     1   6    -0.01   0.08  -0.15    -0.05  -0.01  -0.05     0.06  -0.01   0.03
     2   6     0.03   0.13  -0.17    -0.03   0.01  -0.05     0.06  -0.01   0.04
     3   6     0.13   0.14  -0.11     0.02   0.01  -0.02     0.03  -0.01   0.03
     4   6     0.18   0.11  -0.03     0.05  -0.00   0.01    -0.00   0.01   0.01
     5   6     0.14   0.07  -0.02     0.03  -0.02   0.02    -0.01   0.01   0.01
     6   6     0.05   0.06  -0.07    -0.03  -0.02  -0.01     0.02   0.00   0.02
     7   6     0.02  -0.00  -0.04    -0.06  -0.05   0.00     0.02   0.01   0.01
     8   8     0.02  -0.03  -0.05     0.03  -0.03   0.01    -0.07   0.00   0.00
     9   8    -0.01   0.08   0.15     0.02  -0.06   0.12    -0.07   0.06  -0.03
    10  16     0.03   0.03   0.05     0.01  -0.05   0.06    -0.05   0.03  -0.01
    11   7    -0.01   0.01   0.03    -0.05  -0.06   0.05    -0.01   0.04  -0.00
    12   8     0.20   0.05   0.06     0.06  -0.03   0.06    -0.05   0.03  -0.01
    13   6     0.01  -0.02  -0.04    -0.05  -0.02  -0.03     0.01  -0.03   0.02
    14   7     0.00  -0.04  -0.02    -0.03   0.03  -0.04     0.01  -0.03   0.01
    15   6    -0.07  -0.03   0.03     0.04   0.04  -0.00    -0.00  -0.03   0.00
    16   7    -0.01  -0.04   0.00    -0.01   0.07  -0.07     0.01  -0.03  -0.00
    17   6    -0.03  -0.08   0.01    -0.04   0.04  -0.06    -0.01  -0.04  -0.01
    18   6    -0.00  -0.01   0.00    -0.04   0.01  -0.03     0.02   0.01   0.01
    19  15    -0.03  -0.04   0.01    -0.02   0.05  -0.05     0.00  -0.03   0.00
    20   6    -0.10  -0.06   0.03     0.04   0.06  -0.08     0.02  -0.01   0.03
    21   6    -0.15  -0.05   0.04     0.10   0.06  -0.01     0.02  -0.02   0.02
    22   6    -0.16  -0.01   0.06     0.16   0.05   0.13     0.01  -0.03  -0.01
    23   6    -0.12   0.03   0.06     0.16   0.04   0.21    -0.00  -0.04  -0.04
    24   6    -0.08   0.02   0.04     0.10   0.03   0.14    -0.01  -0.04  -0.03
    25   6    -0.01  -0.10  -0.00     0.03  -0.03  -0.05     0.01  -0.06  -0.02
    26   6    -0.01  -0.12  -0.01     0.03  -0.07  -0.05    -0.01  -0.08  -0.04
    27   6    -0.03  -0.13   0.00    -0.03  -0.03  -0.07    -0.05  -0.07  -0.04
    28   6    -0.05  -0.11   0.01    -0.10   0.04  -0.08    -0.08  -0.04  -0.02
    29   6    -0.05  -0.08   0.02    -0.10   0.07  -0.08    -0.06  -0.03  -0.01
    30   6    -0.01  -0.02   0.00    -0.02   0.07  -0.03     0.13   0.21  -0.01
    31   6     0.00   0.00  -0.00    -0.04   0.05  -0.01     0.16   0.28  -0.00
    32   6     0.03   0.05  -0.01    -0.07  -0.04   0.00     0.09   0.13   0.02
    33   6     0.03   0.07  -0.01    -0.09  -0.10   0.00    -0.02  -0.08   0.03
    34   6     0.02   0.04  -0.00    -0.07  -0.07  -0.02    -0.05  -0.14   0.03
    35   1    -0.08   0.07  -0.19    -0.09  -0.02  -0.07     0.08  -0.01   0.04
    36   1    -0.02   0.15  -0.23    -0.04   0.01  -0.08     0.09  -0.02   0.05
    37   1     0.16   0.17  -0.12     0.04   0.03  -0.03     0.04  -0.01   0.03
    38   1     0.26   0.13   0.01     0.09   0.01   0.04    -0.03   0.01   0.00
    39   1     0.01  -0.04  -0.07    -0.09  -0.06  -0.01     0.04   0.02   0.02
    40   1    -0.10  -0.10   0.02    -0.01   0.07  -0.18     0.02  -0.00   0.05
    41   1    -0.17  -0.08   0.04     0.10   0.08  -0.07     0.03  -0.01   0.04
    42   1    -0.19  -0.00   0.07     0.21   0.06   0.19     0.02  -0.03  -0.02
    43   1    -0.13   0.06   0.07     0.21   0.03   0.32    -0.01  -0.05  -0.07
    44   1    -0.06   0.04   0.04     0.10   0.02   0.20    -0.02  -0.05  -0.05
    45   1     0.01  -0.09  -0.01     0.07  -0.06  -0.04     0.04  -0.07  -0.03
    46   1     0.00  -0.14  -0.02     0.08  -0.12  -0.04     0.00  -0.10  -0.05
    47   1    -0.03  -0.15  -0.00    -0.03  -0.06  -0.07    -0.07  -0.08  -0.05
    48   1    -0.07  -0.11   0.02    -0.15   0.07  -0.09    -0.11  -0.04  -0.02
    49   1    -0.06  -0.06   0.03    -0.15   0.12  -0.09    -0.08  -0.00   0.00
    50   1    -0.03  -0.06   0.01     0.01   0.14  -0.05     0.19   0.32  -0.02
    51   1    -0.00  -0.01  -0.00    -0.02   0.09  -0.01     0.25   0.44  -0.01
    52   1     0.04   0.07  -0.01    -0.09  -0.07   0.02     0.12   0.18   0.02
    53   1     0.05   0.10  -0.01    -0.12  -0.17   0.01    -0.08  -0.19   0.05
    54   1     0.02   0.05  -0.00    -0.08  -0.11  -0.02    -0.13  -0.29   0.04
                      4                      5                      6
                      A                      A                      A
 Frequencies --     32.8324                39.5668                51.6453
 Red. masses --      6.5880                 5.2853                 5.7895
 Frc consts  --      0.0042                 0.0049                 0.0091
 IR Inten    --      1.5858                 0.8614                 0.3799
  Atom  AN      X      Y      Z        X      Y      Z        X      Y      Z
     1   6    -0.03   0.04   0.07     0.07  -0.03   0.06     0.11  -0.08  -0.08
     2   6    -0.00  -0.01   0.11     0.10  -0.04   0.07     0.23  -0.09  -0.06
     3   6     0.08  -0.08   0.10     0.08  -0.03   0.06     0.26  -0.07  -0.04
     4   6     0.13  -0.10   0.07     0.03  -0.01   0.05     0.14  -0.04  -0.04
     5   6     0.10  -0.04   0.04     0.01  -0.01   0.05     0.01  -0.03  -0.05
     6   6     0.02   0.03   0.04     0.03  -0.02   0.05     0.00  -0.05  -0.08
     7   6    -0.00   0.08   0.01     0.00  -0.01   0.04    -0.05  -0.06  -0.08
     8   8     0.12   0.01  -0.15    -0.08  -0.02   0.03    -0.05   0.01   0.02
     9   8     0.10  -0.00  -0.03    -0.08   0.04   0.03    -0.04  -0.05  -0.01
    10  16     0.09   0.01  -0.05    -0.06   0.01   0.04    -0.06  -0.03  -0.02
    11   7     0.02   0.07  -0.00    -0.03   0.02   0.04    -0.06  -0.06  -0.05
    12   8     0.16  -0.06   0.01    -0.05   0.01   0.04    -0.10   0.01  -0.05
    13   6     0.00   0.11  -0.05    -0.01  -0.05   0.03    -0.05  -0.05  -0.08
    14   7    -0.02   0.06  -0.03     0.01  -0.02  -0.03    -0.04  -0.01  -0.03
    15   6    -0.04   0.02  -0.03     0.02   0.02  -0.04    -0.03   0.04  -0.00
    16   7    -0.04   0.03  -0.00     0.04   0.02  -0.06    -0.04   0.02   0.00
    17   6    -0.05   0.04  -0.00    -0.02  -0.00  -0.07    -0.03   0.05   0.01
    18   6    -0.07   0.01   0.04     0.01   0.03   0.01    -0.05   0.04   0.01
    19  15    -0.05   0.03  -0.00     0.01   0.02  -0.04    -0.05   0.04  -0.00
    20   6    -0.02   0.04  -0.03     0.03   0.03  -0.04     0.01   0.06   0.07
    21   6    -0.02   0.03  -0.09     0.04   0.02  -0.06     0.04   0.07   0.11
    22   6    -0.03  -0.01  -0.15     0.04   0.01  -0.08     0.03   0.05   0.08
    23   6    -0.05  -0.03  -0.16     0.03  -0.00  -0.08    -0.01   0.02   0.00
    24   6    -0.05  -0.01  -0.10     0.02   0.00  -0.06    -0.04   0.02  -0.04
    25   6     0.00  -0.02   0.02     0.03  -0.06  -0.08    -0.04   0.06   0.04
    26   6     0.05  -0.08   0.05     0.01  -0.11  -0.10     0.03   0.03   0.09
    27   6     0.03  -0.07   0.04    -0.06  -0.09  -0.10     0.12  -0.03   0.11
    28   6    -0.03  -0.00   0.01    -0.11  -0.03  -0.08     0.13  -0.04   0.08
    29   6    -0.07   0.05  -0.01    -0.09   0.01  -0.07     0.05   0.00   0.03
    30   6    -0.07   0.06   0.05    -0.10  -0.07   0.05    -0.06   0.04   0.01
    31   6    -0.09   0.02   0.08    -0.10  -0.06   0.11    -0.06   0.04   0.02
    32   6    -0.12  -0.07   0.11     0.02   0.06   0.12    -0.06   0.03   0.03
    33   6    -0.11  -0.12   0.10     0.14   0.16   0.08    -0.05   0.03   0.02
    34   6    -0.09  -0.08   0.06     0.13   0.14   0.03    -0.05   0.03   0.01
    35   1    -0.09   0.09   0.08     0.09  -0.04   0.06     0.11  -0.10  -0.09
    36   1    -0.04  -0.00   0.13     0.14  -0.05   0.07     0.32  -0.12  -0.06
    37   1     0.10  -0.13   0.13     0.10  -0.03   0.07     0.36  -0.08  -0.02
    38   1     0.19  -0.15   0.07     0.01  -0.00   0.05     0.16  -0.02  -0.02
    39   1    -0.05   0.11   0.04     0.02  -0.00   0.05    -0.06  -0.06  -0.08
    40   1    -0.01   0.07   0.02     0.04   0.04  -0.03     0.02   0.07   0.10
    41   1    -0.00   0.04  -0.08     0.05   0.03  -0.06     0.07   0.08   0.17
    42   1    -0.03  -0.02  -0.20     0.04   0.00  -0.10     0.05   0.05   0.11
    43   1    -0.06  -0.05  -0.21     0.03  -0.01  -0.10    -0.01   0.01  -0.03
    44   1    -0.07  -0.03  -0.11     0.02  -0.00  -0.06    -0.06   0.00  -0.09
    45   1     0.02  -0.03   0.02     0.08  -0.08  -0.09    -0.10   0.10   0.03
    46   1     0.09  -0.13   0.07     0.05  -0.15  -0.11     0.03   0.04   0.11
    47   1     0.06  -0.11   0.07    -0.07  -0.12  -0.11     0.18  -0.06   0.15
    48   1    -0.05   0.01   0.01    -0.16  -0.02  -0.08     0.19  -0.08   0.10
    49   1    -0.11   0.09  -0.03    -0.13   0.05  -0.05     0.06  -0.01   0.02
    50   1    -0.05   0.13   0.03    -0.20  -0.16   0.03    -0.06   0.05   0.01
    51   1    -0.10   0.06   0.09    -0.19  -0.14   0.13    -0.06   0.04   0.02
    52   1    -0.14  -0.11   0.13     0.02   0.07   0.16    -0.06   0.03   0.03
    53   1    -0.13  -0.20   0.12     0.23   0.25   0.10    -0.05   0.02   0.03
    54   1    -0.09  -0.12   0.06     0.22   0.22  -0.00    -0.05   0.02   0.01
                      7                      8                      9
                      A                      A                      A
 Frequencies --     57.4830                67.9737                69.9700
 Red. masses --      5.4023                 4.6178                 5.3424
 Frc consts  --      0.0105                 0.0126                 0.0154
 IR Inten    --      0.9280                 2.6743                 0.7129
  Atom  AN      X      Y      Z        X      Y      Z        X      Y      Z
     1   6    -0.05   0.02   0.02    -0.03   0.01  -0.03    -0.11   0.04  -0.04
     2   6    -0.03  -0.00   0.03    -0.06   0.03  -0.04    -0.17   0.06  -0.05
     3   6     0.03  -0.04   0.04    -0.07   0.04  -0.04    -0.16   0.06  -0.05
     4   6     0.06  -0.05   0.03    -0.03   0.03  -0.02    -0.09   0.04  -0.03
     5   6     0.04  -0.02   0.01     0.00   0.00  -0.00    -0.04   0.02  -0.01
     6   6    -0.02   0.01   0.00    -0.01   0.00  -0.01    -0.05   0.02  -0.01
     7   6    -0.04   0.04  -0.01    -0.02  -0.01  -0.01    -0.02   0.00  -0.00
     8   8     0.00  -0.01  -0.12     0.06  -0.02   0.01    -0.06  -0.02  -0.02
     9   8    -0.01   0.02  -0.01     0.06  -0.05   0.07    -0.06   0.04   0.01
    10  16    -0.00   0.01  -0.04     0.05  -0.03   0.03    -0.04   0.01  -0.00
    11   7    -0.05   0.05  -0.01     0.01  -0.04   0.02    -0.03   0.01  -0.00
    12   8     0.08  -0.04   0.00     0.06  -0.02   0.03     0.00   0.01   0.01
    13   6    -0.04   0.02  -0.03    -0.01   0.03  -0.02    -0.02  -0.00   0.02
    14   7    -0.07  -0.02  -0.00    -0.01   0.03  -0.01    -0.01   0.01  -0.01
    15   6    -0.01  -0.08  -0.02     0.01   0.00   0.02     0.02   0.02  -0.03
    16   7    -0.09  -0.07   0.02    -0.02   0.02   0.00     0.00   0.03  -0.04
    17   6    -0.05  -0.01   0.02    -0.04  -0.00   0.01     0.02  -0.00  -0.03
    18   6    -0.06  -0.04   0.00    -0.03  -0.00   0.00     0.00   0.02   0.00
    19  15    -0.07  -0.06   0.00    -0.03   0.01   0.02     0.00   0.02  -0.04
    20   6     0.00  -0.04  -0.11     0.11   0.07   0.17     0.03   0.03  -0.04
    21   6     0.07  -0.05  -0.10     0.17   0.06   0.18     0.05   0.03  -0.04
    22   6     0.12  -0.09   0.01     0.13  -0.02   0.01     0.06   0.01  -0.03
    23   6     0.11  -0.12   0.10     0.03  -0.09  -0.17     0.05  -0.00  -0.02
    24   6     0.05  -0.11   0.08    -0.03  -0.08  -0.16     0.03   0.00  -0.02
    25   6    -0.07   0.01   0.07    -0.07   0.03  -0.04     0.03  -0.01  -0.02
    26   6    -0.03   0.05   0.10    -0.10   0.02  -0.06     0.12  -0.10   0.04
    27   6     0.02   0.07   0.07    -0.09  -0.02  -0.03     0.22  -0.19   0.09
    28   6     0.03   0.06   0.02    -0.05  -0.07   0.03     0.20  -0.18   0.07
    29   6    -0.00   0.02  -0.01    -0.02  -0.06   0.05     0.10  -0.08   0.01
    30   6    -0.05  -0.03   0.00    -0.02  -0.01  -0.00    -0.03   0.05   0.03
    31   6     0.02   0.10  -0.01    -0.00   0.02  -0.02    -0.03   0.05   0.08
    32   6     0.09   0.22  -0.03     0.01   0.06  -0.04    -0.00   0.02   0.11
    33   6     0.08   0.20  -0.03    -0.00   0.07  -0.03     0.03  -0.01   0.09
    34   6     0.00   0.07  -0.01    -0.03   0.04  -0.01     0.03  -0.01   0.03
    35   1    -0.10   0.05   0.01    -0.03   0.00  -0.03    -0.12   0.04  -0.04
    36   1    -0.06   0.00   0.04    -0.08   0.04  -0.06    -0.22   0.08  -0.07
    37   1     0.05  -0.06   0.05    -0.09   0.06  -0.05    -0.20   0.08  -0.06
    38   1     0.10  -0.08   0.03    -0.02   0.03  -0.01    -0.08   0.04  -0.02
    39   1    -0.05   0.05   0.00    -0.05  -0.03  -0.01    -0.00  -0.01  -0.01
    40   1    -0.04  -0.01  -0.17     0.13   0.13   0.27     0.02   0.04  -0.05
    41   1     0.08  -0.03  -0.16     0.25   0.12   0.30     0.06   0.04  -0.06
    42   1     0.18  -0.10   0.02     0.18  -0.03   0.01     0.08   0.01  -0.03
    43   1     0.16  -0.15   0.18    -0.00  -0.16  -0.30     0.06  -0.02  -0.01
    44   1     0.04  -0.13   0.15    -0.10  -0.13  -0.28     0.03  -0.01  -0.00
    45   1    -0.11   0.00   0.09    -0.08   0.07  -0.06    -0.03   0.05  -0.05
    46   1    -0.04   0.07   0.14    -0.13   0.06  -0.11     0.13  -0.11   0.05
    47   1     0.05   0.10   0.10    -0.11  -0.03  -0.04     0.30  -0.28   0.14
    48   1     0.07   0.07  -0.00    -0.04  -0.11   0.05     0.27  -0.25   0.11
    49   1     0.01  -0.00  -0.05     0.01  -0.08   0.09     0.10  -0.07   0.01
    50   1    -0.09  -0.11   0.01    -0.03  -0.04   0.01    -0.05   0.06   0.00
    51   1     0.03   0.11  -0.02     0.01   0.01  -0.03    -0.06   0.08   0.09
    52   1     0.15   0.33  -0.04     0.03   0.09  -0.05    -0.01   0.02   0.14
    53   1     0.13   0.29  -0.04     0.00   0.10  -0.04     0.05  -0.04   0.11
    54   1    -0.00   0.06  -0.01    -0.04   0.04  -0.00     0.06  -0.04   0.02
                     10                     11                     12
                      A                      A                      A
 Frequencies --     72.2251                82.5489                91.8488
 Red. masses --      5.8986                 7.0008                 4.7504
 Frc consts  --      0.0181                 0.0281                 0.0236
 IR Inten    --      0.3486                 1.2270                 3.5812
  Atom  AN      X      Y      Z        X      Y      Z        X      Y      Z
     1   6    -0.01  -0.00   0.04     0.02   0.02   0.03    -0.03   0.01  -0.02
     2   6    -0.04  -0.01   0.04     0.01   0.02   0.03    -0.07   0.02  -0.03
     3   6    -0.02  -0.02   0.04    -0.04   0.04   0.01    -0.05   0.01  -0.03
     4   6     0.03  -0.04   0.04    -0.07   0.05  -0.00    -0.01  -0.01  -0.02
     5   6     0.07  -0.04   0.04    -0.06   0.05  -0.00     0.02  -0.02  -0.01
     6   6     0.04  -0.02   0.04    -0.02   0.03   0.01     0.01  -0.01  -0.01
     7   6     0.02  -0.01   0.03    -0.02   0.05  -0.00     0.02  -0.02  -0.01
     8   8    -0.06  -0.12  -0.13     0.14   0.19   0.13    -0.08  -0.07  -0.09
     9   8    -0.09   0.07   0.04     0.17  -0.10  -0.01    -0.10   0.07  -0.03
    10  16    -0.03  -0.01  -0.01     0.07   0.04   0.03    -0.05   0.00  -0.04
    11   7    -0.03   0.04   0.04     0.03   0.01   0.00    -0.02   0.03  -0.02
    12   8     0.15  -0.06   0.05    -0.13   0.07  -0.02     0.06  -0.02  -0.01
    13   6     0.00  -0.05  -0.00    -0.01   0.07  -0.05     0.00  -0.07   0.04
    14   7     0.01  -0.05  -0.05    -0.04  -0.02  -0.07     0.00  -0.07   0.05
    15   6    -0.02  -0.01  -0.06    -0.06  -0.07  -0.09    -0.01   0.01  -0.02
    16   7     0.02  -0.05  -0.07    -0.06  -0.09  -0.08     0.01  -0.05   0.05
    17   6     0.02   0.01  -0.08     0.00  -0.04  -0.07     0.03   0.02   0.03
    18   6     0.02  -0.01  -0.02    -0.03  -0.05  -0.05     0.02   0.02   0.00
    19  15     0.02  -0.03  -0.08    -0.04  -0.08  -0.10     0.01   0.01   0.02
    20   6    -0.01  -0.03   0.04    -0.04  -0.07   0.02     0.03   0.03   0.08
    21   6    -0.03  -0.01   0.15    -0.02  -0.05   0.16     0.06   0.04   0.14
    22   6    -0.04   0.04   0.15    -0.02  -0.02   0.18     0.04   0.02   0.08
    23   6    -0.05   0.06   0.03    -0.05  -0.02   0.04    -0.01  -0.00  -0.05
    24   6    -0.04   0.03  -0.07    -0.07  -0.05  -0.09    -0.04  -0.01  -0.09
    25   6    -0.08   0.11  -0.08     0.06  -0.09   0.02     0.14  -0.10   0.12
    26   6    -0.08   0.19  -0.08     0.10  -0.06   0.05     0.16  -0.11   0.13
    27   6     0.01   0.16  -0.07     0.08   0.02  -0.01     0.05   0.04   0.05
    28   6     0.11   0.05  -0.07     0.03   0.07  -0.10    -0.08   0.17  -0.04
    29   6     0.11  -0.02  -0.07    -0.01   0.04  -0.12    -0.08   0.14  -0.04
    30   6    -0.02   0.04   0.00    -0.09  -0.00  -0.02     0.02  -0.02  -0.01
    31   6    -0.03   0.03   0.08    -0.06   0.05   0.06     0.01  -0.05  -0.03
    32   6     0.01  -0.02   0.12     0.02   0.06   0.10    -0.01  -0.04  -0.04
    33   6     0.05  -0.07   0.09     0.07   0.00   0.07    -0.00   0.01  -0.03
    34   6     0.06  -0.07   0.02     0.04  -0.05  -0.01     0.01   0.03  -0.01
    35   1    -0.03   0.01   0.04     0.06   0.01   0.04    -0.04   0.01  -0.02
    36   1    -0.08   0.01   0.04     0.04   0.01   0.04    -0.11   0.03  -0.04
    37   1    -0.05  -0.02   0.03    -0.05   0.04   0.01    -0.08   0.01  -0.04
    38   1     0.04  -0.05   0.03    -0.11   0.06  -0.02     0.00  -0.02  -0.02
    39   1     0.03   0.01   0.04    -0.06   0.05   0.01     0.08  -0.01  -0.01
    40   1    -0.00  -0.07   0.04    -0.03  -0.09   0.01     0.04   0.05   0.11
    41   1    -0.03  -0.02   0.24     0.00  -0.05   0.25     0.09   0.06   0.22
    42   1    -0.05   0.06   0.24     0.00   0.01   0.30     0.06   0.03   0.12
    43   1    -0.06   0.09   0.03    -0.05   0.00   0.05    -0.03  -0.02  -0.11
    44   1    -0.04   0.04  -0.15    -0.08  -0.05  -0.18    -0.07  -0.02  -0.17
    45   1    -0.15   0.13  -0.08     0.06  -0.14   0.06     0.22  -0.20   0.17
    46   1    -0.16   0.28  -0.09     0.14  -0.11   0.13     0.26  -0.22   0.21
    47   1     0.00   0.22  -0.07     0.11   0.05   0.01     0.05   0.04   0.05
    48   1     0.18   0.02  -0.06     0.02   0.14  -0.14    -0.17   0.28  -0.11
    49   1     0.18  -0.10  -0.07    -0.04   0.07  -0.19    -0.15   0.22  -0.10
    50   1    -0.04   0.07  -0.02    -0.15  -0.01  -0.05     0.03  -0.03   0.00
    51   1    -0.06   0.08   0.10    -0.10   0.10   0.08     0.00  -0.09  -0.03
    52   1    -0.00  -0.03   0.17     0.04   0.11   0.15    -0.02  -0.06  -0.05
    53   1     0.07  -0.12   0.12     0.13   0.01   0.10    -0.01   0.02  -0.04
    54   1     0.09  -0.11  -0.00     0.08  -0.09  -0.04     0.01   0.06  -0.01
                     13                     14                     15
                      A                      A                      A
 Frequencies --    134.6469               139.5593               158.8194
 Red. masses --      5.2792                11.4820                 6.0249
 Frc consts  --      0.0564                 0.1318                 0.0895
 IR Inten    --      1.3049                 7.4060                 0.9139
  Atom  AN      X      Y      Z        X      Y      Z        X      Y      Z
     1   6     0.24  -0.06   0.08     0.11  -0.08   0.00     0.11  -0.05   0.01
     2   6     0.10  -0.02   0.05     0.07  -0.03  -0.02     0.08  -0.03  -0.00
     3   6    -0.15   0.06  -0.03    -0.07   0.04  -0.05    -0.07   0.02  -0.04
     4   6    -0.17   0.07  -0.04    -0.11   0.04  -0.02    -0.10   0.04  -0.04
     5   6     0.03   0.00   0.01    -0.02  -0.01   0.02    -0.01  -0.01  -0.01
     6   6     0.18  -0.04   0.06     0.04  -0.05   0.02     0.03  -0.03   0.00
     7   6     0.11  -0.01   0.03    -0.07  -0.07   0.01    -0.04  -0.00  -0.02
     8   8     0.01  -0.07   0.01     0.17   0.35  -0.35    -0.02  -0.05  -0.06
     9   8     0.00   0.05   0.00     0.11  -0.16   0.16    -0.04   0.00   0.06
    10  16     0.04  -0.00   0.02    -0.05   0.07  -0.05    -0.02  -0.02   0.01
    11   7     0.07   0.02   0.04    -0.37   0.16   0.04    -0.04  -0.01   0.02
    12   8     0.08  -0.01   0.03     0.03  -0.03   0.04     0.05  -0.03   0.02
    13   6     0.08  -0.05  -0.08    -0.14  -0.35   0.08    -0.02   0.08  -0.10
    14   7     0.06  -0.11  -0.08    -0.05  -0.12   0.06     0.02   0.18  -0.11
    15   6    -0.06   0.01  -0.05     0.03   0.02   0.03     0.08  -0.00   0.20
    16   7     0.04  -0.09  -0.01     0.01   0.00   0.04     0.05   0.24  -0.16
    17   6    -0.09   0.04  -0.02     0.04  -0.01   0.03    -0.02  -0.05  -0.02
    18   6    -0.05   0.05   0.02     0.04   0.02   0.00    -0.05  -0.10  -0.02
    19  15    -0.05   0.01  -0.01     0.02   0.02   0.02     0.00  -0.01   0.00
    20   6    -0.05   0.03  -0.07     0.02   0.01   0.02     0.06  -0.03   0.18
    21   6    -0.01   0.03  -0.04     0.00   0.01  -0.02    -0.03  -0.05   0.03
    22   6     0.02   0.02   0.03    -0.01   0.01  -0.04    -0.09  -0.05  -0.11
    23   6     0.01  -0.00   0.05     0.00   0.03  -0.01    -0.04  -0.02  -0.03
    24   6    -0.04  -0.00   0.00     0.03   0.03   0.02     0.05   0.01   0.13
    25   6    -0.08   0.03   0.00     0.03   0.00  -0.00     0.00  -0.07   0.06
    26   6    -0.02  -0.02   0.04    -0.01   0.01  -0.03     0.04  -0.01   0.09
    27   6     0.04  -0.06   0.06    -0.03  -0.00  -0.02     0.04   0.07   0.03
    28   6     0.02  -0.03   0.03    -0.01  -0.03   0.03     0.02   0.08  -0.05
    29   6    -0.05   0.02  -0.01     0.03  -0.03   0.05     0.00   0.01  -0.07
    30   6    -0.03   0.03   0.01     0.04   0.01   0.00    -0.06  -0.07  -0.01
    31   6    -0.03   0.01  -0.04     0.02  -0.02   0.01    -0.01   0.02   0.01
    32   6    -0.07   0.01  -0.06     0.01  -0.04   0.01     0.05   0.07   0.02
    33   6    -0.09   0.04  -0.04     0.02  -0.02   0.01     0.03  -0.00   0.01
    34   6    -0.08   0.06  -0.00     0.04   0.01   0.01    -0.02  -0.09  -0.01
    35   1     0.37  -0.10   0.12     0.18  -0.12   0.01     0.18  -0.09   0.03
    36   1     0.15  -0.04   0.06     0.12  -0.05  -0.03     0.14  -0.05   0.01
    37   1    -0.32   0.11  -0.07    -0.15   0.09  -0.08    -0.14   0.06  -0.06
    38   1    -0.35   0.12  -0.10    -0.20   0.10  -0.03    -0.19   0.07  -0.06
    39   1     0.07   0.02   0.06     0.12  -0.04   0.01    -0.12   0.01   0.00
    40   1    -0.06   0.04  -0.09     0.03   0.00   0.02     0.08  -0.04   0.23
    41   1     0.00   0.05  -0.05    -0.01   0.00  -0.03    -0.06  -0.08  -0.01
    42   1     0.06   0.02   0.06    -0.03   0.01  -0.07    -0.17  -0.08  -0.28
    43   1     0.03  -0.01   0.10    -0.00   0.03  -0.03    -0.08  -0.01  -0.12
    44   1    -0.04  -0.01   0.02     0.04   0.04   0.03     0.07   0.02   0.16
    45   1    -0.11   0.04  -0.00     0.06   0.01  -0.01    -0.02  -0.10   0.09
    46   1    -0.00  -0.03   0.07    -0.02   0.02  -0.07     0.06  -0.03   0.17
    47   1     0.10  -0.11   0.10    -0.07   0.00  -0.04     0.06   0.11   0.05
    48   1     0.06  -0.06   0.04    -0.02  -0.04   0.04     0.03   0.15  -0.10
    49   1    -0.06   0.03  -0.03     0.04  -0.03   0.08    -0.00   0.01  -0.13
    50   1    -0.00   0.03   0.02     0.05   0.02   0.00    -0.09  -0.09  -0.02
    51   1    -0.01  -0.02  -0.05     0.01  -0.03   0.01    -0.00   0.07   0.01
    52   1    -0.08  -0.01  -0.09    -0.01  -0.07   0.01     0.10   0.17   0.03
    53   1    -0.12   0.05  -0.06     0.01  -0.03   0.01     0.06   0.02   0.02
    54   1    -0.11   0.08   0.01     0.04   0.02   0.00    -0.02  -0.13  -0.01
                     16                     17                     18
                      A                      A                      A
 Frequencies --    192.9776               200.3926               234.7694
 Red. masses --      6.0653                 4.7289                 5.7539
 Frc consts  --      0.1331                 0.1119                 0.1869
 IR Inten    --      7.4430                 1.8133                 2.3839
  Atom  AN      X      Y      Z        X      Y      Z        X      Y      Z
     1   6    -0.10   0.02  -0.01    -0.02   0.00  -0.01    -0.04   0.06  -0.01
     2   6    -0.16   0.04  -0.03    -0.03   0.01  -0.01     0.16  -0.01   0.04
     3   6     0.03  -0.02   0.03     0.00  -0.00   0.00     0.07   0.01   0.01
     4   6     0.15  -0.06   0.06     0.02  -0.01   0.01    -0.13   0.08  -0.04
     5   6     0.05  -0.03   0.04     0.00  -0.00   0.01    -0.13   0.07  -0.04
     6   6     0.05  -0.03   0.03     0.00  -0.01   0.00    -0.17   0.10  -0.04
     7   6     0.10  -0.05   0.04     0.01  -0.01   0.01    -0.05   0.02   0.03
     8   8     0.01   0.12   0.07     0.00   0.03  -0.00     0.02  -0.08  -0.08
     9   8     0.02  -0.01  -0.06     0.00  -0.01  -0.00     0.03  -0.04   0.04
    10  16    -0.02   0.04   0.00    -0.01   0.01  -0.00     0.03  -0.04  -0.02
    11   7     0.01   0.03  -0.00    -0.01   0.01   0.00     0.01  -0.03  -0.01
    12   8    -0.09   0.02  -0.00    -0.01   0.00   0.00     0.07   0.00  -0.01
    13   6     0.06  -0.18   0.08     0.01  -0.04   0.03    -0.04   0.05   0.22
    14   7     0.12  -0.10  -0.11     0.02  -0.01   0.01    -0.02   0.04   0.11
    15   6    -0.03   0.01   0.11     0.12  -0.02  -0.06    -0.01  -0.03   0.01
    16   7     0.20   0.03  -0.16     0.02  -0.00   0.02     0.01   0.02  -0.04
    17   6    -0.13  -0.04  -0.09    -0.08   0.18  -0.05    -0.14   0.02  -0.10
    18   6     0.00   0.04   0.05    -0.08  -0.16   0.09     0.08   0.07   0.04
    19  15    -0.02  -0.01  -0.01     0.03   0.01   0.01     0.00  -0.02  -0.01
    20   6    -0.01   0.05   0.09     0.07  -0.09  -0.03    -0.01  -0.03   0.00
    21   6     0.02   0.03   0.01    -0.03  -0.06   0.04    -0.00  -0.03   0.02
    22   6     0.01  -0.03  -0.06    -0.06   0.03   0.05    -0.00  -0.04   0.02
    23   6    -0.01  -0.06  -0.01    -0.01   0.10  -0.03    -0.01  -0.04  -0.00
    24   6    -0.03  -0.03   0.09     0.09   0.07  -0.08    -0.02  -0.04   0.00
    25   6    -0.14  -0.02  -0.00    -0.05   0.15  -0.08    -0.15   0.03  -0.05
    26   6    -0.05   0.02   0.07     0.02   0.00  -0.04    -0.04  -0.00   0.04
    27   6     0.06   0.02   0.05     0.06  -0.11   0.03     0.09  -0.05   0.05
    28   6     0.05   0.02  -0.06    -0.03  -0.00   0.02     0.02   0.01  -0.06
    29   6    -0.05  -0.01  -0.13    -0.10   0.14  -0.02    -0.10   0.05  -0.14
    30   6     0.03   0.02   0.03    -0.03  -0.17   0.07     0.12   0.06   0.03
    31   6     0.02  -0.01  -0.02     0.06  -0.04  -0.01     0.08  -0.04  -0.00
    32   6    -0.03  -0.02  -0.04     0.09   0.10  -0.05     0.01  -0.11  -0.01
    33   6    -0.05   0.02  -0.02    -0.03   0.01  -0.02     0.03   0.00   0.00
    34   6    -0.03   0.05   0.03    -0.11  -0.13   0.06     0.08   0.09   0.03
    35   1    -0.18   0.05  -0.04    -0.04   0.01  -0.01    -0.00   0.04  -0.01
    36   1    -0.31   0.09  -0.08    -0.06   0.02  -0.02     0.36  -0.08   0.10
    37   1     0.06  -0.02   0.03     0.01  -0.00   0.00     0.19  -0.03   0.05
    38   1     0.24  -0.09   0.09     0.04  -0.01   0.02    -0.15   0.09  -0.04
    39   1     0.22  -0.04   0.03     0.04  -0.01   0.00     0.04  -0.04  -0.04
    40   1    -0.01   0.09   0.11     0.09  -0.16  -0.04    -0.02  -0.02   0.00
    41   1     0.03   0.05  -0.01    -0.08  -0.13   0.08     0.00  -0.02   0.02
    42   1     0.01  -0.05  -0.15    -0.12   0.06   0.11     0.01  -0.03   0.03
    43   1    -0.01  -0.10  -0.05    -0.04   0.18  -0.03    -0.01  -0.04  -0.01
    44   1    -0.04  -0.05   0.11     0.12   0.11  -0.13    -0.02  -0.04  -0.00
    45   1    -0.22  -0.03   0.03    -0.06   0.19  -0.11    -0.22   0.03  -0.03
    46   1    -0.06   0.03   0.16     0.07  -0.06  -0.05    -0.02  -0.02   0.11
    47   1     0.14   0.03   0.11     0.16  -0.26   0.09     0.22  -0.13   0.14
    48   1     0.13   0.04  -0.09    -0.02  -0.06   0.06     0.08   0.01  -0.07
    49   1    -0.05  -0.02  -0.20    -0.14   0.18  -0.00    -0.13   0.07  -0.20
    50   1     0.06   0.02   0.05    -0.02  -0.22   0.10     0.17   0.09   0.04
    51   1     0.04  -0.04  -0.03     0.12  -0.01  -0.04     0.08  -0.07  -0.01
    52   1    -0.05  -0.06  -0.07     0.18   0.26  -0.11    -0.05  -0.22  -0.02
    53   1    -0.08   0.03  -0.04    -0.03   0.08  -0.05    -0.00  -0.00  -0.02
    54   1    -0.06   0.08   0.04    -0.17  -0.16   0.09     0.09   0.13   0.03
                     19                     20                     21
                      A                      A                      A
 Frequencies --    241.1385               256.0623               259.3284
 Red. masses --      6.6750                 5.2960                 5.5923
 Frc consts  --      0.2287                 0.2046                 0.2216
 IR Inten    --      3.6272                 0.9067                 1.7391
  Atom  AN      X      Y      Z        X      Y      Z        X      Y      Z
     1   6    -0.01   0.05  -0.01    -0.02   0.01  -0.01    -0.01  -0.02  -0.01
     2   6     0.08   0.04   0.01     0.04  -0.01   0.01     0.01  -0.02  -0.01
     3   6     0.05   0.04   0.00     0.03  -0.00   0.00     0.01  -0.01  -0.00
     4   6    -0.03   0.07  -0.01    -0.03   0.02  -0.01    -0.02  -0.00  -0.01
     5   6    -0.05   0.05  -0.00    -0.03   0.01  -0.01    -0.02  -0.01  -0.00
     6   6    -0.06   0.07   0.00    -0.04   0.01  -0.01    -0.02  -0.01  -0.01
     7   6     0.05  -0.00   0.07     0.00  -0.01   0.01    -0.00  -0.01  -0.00
     8   8     0.01  -0.09   0.01     0.00  -0.01  -0.03     0.00   0.02  -0.04
     9   8     0.04  -0.02  -0.11     0.00  -0.01   0.02    -0.02   0.00   0.06
    10  16     0.05  -0.03  -0.03     0.00  -0.00  -0.00    -0.02   0.00   0.00
    11   7     0.06  -0.01  -0.01    -0.00  -0.00  -0.00    -0.02  -0.00  -0.00
    12   8     0.06   0.01  -0.01     0.01  -0.00   0.00    -0.01  -0.01   0.00
    13   6    -0.04  -0.12   0.27     0.01  -0.00   0.06     0.03   0.04   0.02
    14   7    -0.04  -0.15   0.15     0.04   0.04  -0.02     0.07   0.12  -0.02
    15   6     0.02   0.04   0.08    -0.12   0.08  -0.08    -0.03  -0.05  -0.06
    16   7     0.01  -0.08   0.04     0.06   0.06  -0.07     0.07   0.10  -0.05
    17   6     0.06  -0.05  -0.03    -0.02  -0.12   0.02     0.09  -0.03  -0.01
    18   6    -0.12  -0.06  -0.03    -0.01  -0.10   0.06    -0.04   0.06   0.20
    19  15    -0.01   0.01  -0.02    -0.01  -0.01   0.01     0.01   0.01   0.04
    20   6     0.03   0.06   0.10    -0.08   0.16  -0.14    -0.05  -0.09  -0.08
    21   6     0.01   0.04   0.00     0.02   0.17  -0.08    -0.02  -0.08   0.00
    22   6    -0.02   0.03  -0.09     0.08   0.15   0.04     0.02  -0.08   0.10
    23   6     0.00   0.03   0.01    -0.00   0.08  -0.01    -0.01  -0.09   0.00
    24   6     0.02   0.05   0.10    -0.11   0.07  -0.09    -0.03  -0.09  -0.08
    25   6     0.08  -0.06  -0.04    -0.03  -0.12   0.08     0.13  -0.06  -0.05
    26   6     0.04  -0.00  -0.07    -0.05  -0.02   0.08     0.08  -0.01  -0.09
    27   6     0.02   0.05  -0.11    -0.06   0.06   0.03     0.02   0.06  -0.13
    28   6     0.07  -0.01  -0.07     0.00  -0.02   0.00     0.07   0.01  -0.07
    29   6     0.10  -0.05  -0.05     0.02  -0.11   0.00     0.13  -0.04  -0.02
    30   6    -0.18  -0.05  -0.01     0.02  -0.17   0.05     0.02   0.02   0.17
    31   6    -0.13   0.06   0.00     0.09  -0.07   0.00     0.03  -0.00   0.03
    32   6    -0.07   0.16  -0.01     0.14   0.05  -0.02    -0.09   0.04  -0.06
    33   6    -0.10   0.04  -0.02     0.04  -0.05   0.02    -0.18   0.10  -0.01
    34   6    -0.15  -0.07  -0.03    -0.02  -0.15   0.06    -0.16   0.12   0.14
    35   1     0.01   0.03  -0.01    -0.01   0.00  -0.01    -0.02  -0.02  -0.02
    36   1     0.16   0.01   0.03     0.09  -0.02   0.02     0.03  -0.03  -0.01
    37   1     0.11   0.03   0.02     0.06  -0.01   0.01     0.03  -0.02  -0.00
    38   1    -0.04   0.09   0.01    -0.04   0.02  -0.01    -0.02  -0.00  -0.01
    39   1     0.19  -0.05   0.00     0.03  -0.02  -0.01     0.00  -0.01  -0.01
    40   1     0.04   0.08   0.14    -0.11   0.22  -0.16    -0.06  -0.11  -0.11
    41   1     0.00   0.04  -0.02     0.05   0.20  -0.08    -0.01  -0.07   0.01
    42   1    -0.06   0.00  -0.21     0.17   0.17   0.16     0.06  -0.06   0.21
    43   1    -0.00   0.02  -0.01     0.03   0.01   0.04    -0.00  -0.07   0.03
    44   1     0.04   0.05   0.14    -0.14   0.04  -0.12    -0.06  -0.11  -0.11
    45   1     0.12  -0.09  -0.03    -0.06  -0.15   0.11     0.17  -0.06  -0.05
    46   1     0.02   0.02  -0.07    -0.08   0.01   0.12     0.06   0.00  -0.09
    47   1    -0.04   0.12  -0.14    -0.10   0.16   0.01    -0.06   0.14  -0.18
    48   1     0.07  -0.01  -0.07     0.04   0.02  -0.03     0.04   0.01  -0.06
    49   1     0.13  -0.08  -0.05     0.05  -0.14  -0.02     0.15  -0.06  -0.02
    50   1    -0.23  -0.08  -0.03     0.02  -0.24   0.07     0.09  -0.02   0.22
    51   1    -0.12   0.09  -0.00     0.12  -0.05  -0.00     0.12  -0.07  -0.03
    52   1     0.00   0.29  -0.00     0.23   0.19  -0.05    -0.09   0.02  -0.16
    53   1    -0.06   0.04   0.00     0.02  -0.02  -0.00    -0.26   0.13  -0.06
    54   1    -0.18  -0.11  -0.02    -0.06  -0.19   0.07    -0.25   0.18   0.19
                     22                     23                     24
                      A                      A                      A
 Frequencies --    272.0993               280.4504               288.7781
 Red. masses --      6.8327                 6.0434                 5.2950
 Frc consts  --      0.2981                 0.2801                 0.2602
 IR Inten    --      3.3571                 2.5276                 1.1624
  Atom  AN      X      Y      Z        X      Y      Z        X      Y      Z
     1   6    -0.04   0.08   0.04    -0.06   0.07   0.01     0.02  -0.02   0.00
     2   6    -0.04  -0.08   0.14     0.00  -0.03   0.08    -0.02   0.02  -0.02
     3   6    -0.04  -0.16   0.09     0.02  -0.08   0.06    -0.02   0.03  -0.02
     4   6    -0.06  -0.12  -0.08    -0.06  -0.04  -0.05     0.03   0.00   0.02
     5   6    -0.01   0.06  -0.15    -0.04   0.06  -0.08     0.03  -0.02   0.02
     6   6    -0.01   0.08  -0.14    -0.05   0.07  -0.07     0.02  -0.02   0.02
     7   6     0.01  -0.00  -0.13     0.06  -0.03  -0.02    -0.04   0.03  -0.01
     8   8     0.01   0.04   0.01     0.01  -0.01  -0.00    -0.01  -0.00   0.01
     9   8    -0.04   0.09   0.31    -0.01   0.04   0.14     0.01  -0.02  -0.05
    10  16     0.01   0.04   0.04     0.01   0.01   0.01    -0.00  -0.00   0.00
    11   7     0.03  -0.05  -0.07     0.04  -0.03  -0.04    -0.02   0.01   0.01
    12   8     0.01   0.08  -0.13     0.03   0.05  -0.07    -0.02  -0.01   0.02
    13   6     0.04  -0.02  -0.14     0.02  -0.11   0.11    -0.02   0.07  -0.10
    14   7    -0.02  -0.11  -0.03     0.08  -0.03  -0.07    -0.08  -0.03   0.04
    15   6    -0.03   0.04   0.07     0.14  -0.04  -0.08     0.18   0.00  -0.04
    16   7    -0.05  -0.14   0.08     0.14   0.08  -0.12    -0.11  -0.09   0.06
    17   6     0.00   0.00  -0.04     0.00  -0.04   0.08    -0.08  -0.14  -0.06
    18   6     0.00  -0.01   0.06    -0.03   0.02  -0.08     0.00   0.03   0.10
    19  15    -0.01  -0.00   0.00     0.02  -0.00  -0.02    -0.01  -0.03  -0.01
    20   6     0.01   0.08   0.09     0.08  -0.12  -0.09     0.15  -0.04  -0.01
    21   6     0.02   0.07   0.01    -0.00  -0.09  -0.00     0.03  -0.01   0.01
    22   6    -0.01   0.03  -0.09    -0.02   0.01   0.06    -0.04   0.11  -0.04
    23   6    -0.01   0.01   0.01     0.03   0.07  -0.03     0.03   0.17  -0.04
    24   6    -0.01   0.03   0.10     0.11   0.03  -0.12     0.16   0.14  -0.04
    25   6     0.02  -0.00  -0.06    -0.01  -0.04   0.13    -0.09  -0.15   0.04
    26   6     0.03  -0.01  -0.06    -0.05  -0.00   0.11    -0.05  -0.04   0.08
    27   6     0.05   0.00  -0.06    -0.11   0.03   0.10    -0.02   0.07   0.00
    28   6     0.04   0.01  -0.06    -0.06  -0.03   0.11     0.04  -0.01  -0.07
    29   6     0.03   0.01  -0.07    -0.02  -0.06   0.12     0.01  -0.15  -0.10
    30   6     0.03  -0.04   0.05    -0.08   0.07  -0.06     0.06   0.04   0.08
    31   6     0.04  -0.03   0.01    -0.10   0.07  -0.01     0.04   0.00   0.01
    32   6     0.04   0.00  -0.02    -0.10   0.03   0.01    -0.04  -0.04  -0.02
    33   6    -0.01   0.00   0.01    -0.03   0.02  -0.02    -0.06   0.04   0.00
    34   6    -0.02  -0.02   0.05    -0.02   0.03  -0.08    -0.03   0.09   0.07
    35   1    -0.03   0.21   0.13    -0.06   0.14   0.05     0.02  -0.03  -0.01
    36   1    -0.02  -0.10   0.25     0.05  -0.05   0.15    -0.06   0.03  -0.04
    37   1    -0.02  -0.27   0.14     0.08  -0.15   0.10    -0.06   0.05  -0.03
    38   1    -0.07  -0.27  -0.19    -0.05  -0.11  -0.10     0.04   0.02   0.03
    39   1    -0.01  -0.06  -0.18     0.17  -0.09  -0.09    -0.12   0.05   0.02
    40   1     0.01   0.12   0.12     0.09  -0.20  -0.11     0.17  -0.10  -0.01
    41   1     0.03   0.08   0.00    -0.05  -0.16   0.03    -0.04  -0.09   0.06
    42   1    -0.02   0.00  -0.21    -0.06   0.04   0.17    -0.13   0.12  -0.06
    43   1    -0.00  -0.02  -0.01     0.00   0.15  -0.03    -0.00   0.25  -0.07
    44   1    -0.01   0.03   0.15     0.14   0.08  -0.17     0.23   0.22  -0.06
    45   1     0.02  -0.00  -0.06    -0.02  -0.07   0.15    -0.15  -0.19   0.09
    46   1     0.04  -0.01  -0.03    -0.06   0.00   0.09    -0.07  -0.02   0.17
    47   1     0.06  -0.00  -0.06    -0.17   0.08   0.07    -0.03   0.19   0.01
    48   1     0.04   0.01  -0.06    -0.05  -0.01   0.09     0.10   0.04  -0.13
    49   1     0.03   0.00  -0.09    -0.02  -0.07   0.15     0.05  -0.19  -0.16
    50   1     0.05  -0.06   0.07    -0.12   0.10  -0.10     0.10   0.05   0.11
    51   1     0.07  -0.04  -0.01    -0.13   0.09   0.00     0.09  -0.03  -0.01
    52   1     0.05   0.03  -0.05    -0.12  -0.00   0.06    -0.08  -0.11  -0.06
    53   1    -0.03   0.02  -0.01     0.01  -0.01   0.01    -0.10   0.05  -0.02
    54   1    -0.05  -0.02   0.06     0.00   0.04  -0.09    -0.06   0.14   0.09
                     25                     26                     27
                      A                      A                      A
 Frequencies --    329.6421               333.0627               350.7723
 Red. masses --      8.2429                 6.7893                10.8812
 Frc consts  --      0.5277                 0.4437                 0.7888
 IR Inten    --      4.2325                 1.7659                 1.3296
  Atom  AN      X      Y      Z        X      Y      Z        X      Y      Z
     1   6     0.08  -0.18  -0.05     0.22   0.12   0.10     0.01  -0.02  -0.06
     2   6    -0.05  -0.10  -0.12    -0.08   0.12   0.09     0.03  -0.15   0.01
     3   6    -0.07  -0.04  -0.10    -0.13   0.04   0.02    -0.07  -0.16  -0.06
     4   6     0.06  -0.09   0.02     0.18  -0.05  -0.03    -0.06  -0.13  -0.13
     5   6     0.04  -0.10   0.04     0.17   0.06  -0.08     0.09  -0.05  -0.12
     6   6     0.02  -0.14   0.02     0.18   0.12  -0.03    -0.01  -0.00  -0.14
     7   6     0.07  -0.03   0.01    -0.02  -0.00  -0.02    -0.03   0.00  -0.11
     8   8     0.06   0.13  -0.07    -0.06  -0.12   0.05     0.01   0.16   0.37
     9   8    -0.06   0.16   0.20     0.04  -0.17   0.03    -0.01   0.19  -0.24
    10  16     0.01   0.06  -0.01    -0.02  -0.07  -0.03     0.03   0.10   0.07
    11   7     0.12  -0.05  -0.11    -0.07  -0.02   0.00    -0.10   0.07   0.06
    12   8    -0.08  -0.03  -0.02    -0.05   0.12  -0.17     0.33  -0.11   0.10
    13   6     0.08   0.16   0.20    -0.11  -0.09   0.08    -0.15  -0.18   0.02
    14   7     0.05   0.15   0.29    -0.08   0.08   0.16    -0.11   0.03   0.14
    15   6    -0.01   0.00  -0.00    -0.01  -0.00  -0.00     0.00   0.00   0.02
    16   7     0.01   0.00   0.12    -0.03   0.15   0.01    -0.04   0.17  -0.00
    17   6    -0.06  -0.07  -0.05    -0.02  -0.02  -0.02    -0.03  -0.03  -0.02
    18   6    -0.00  -0.00  -0.10     0.00   0.00  -0.01     0.00   0.00   0.00
    19  15     0.05  -0.00   0.05     0.01   0.02   0.02    -0.00   0.03   0.02
    20   6    -0.02  -0.00  -0.04    -0.03  -0.02  -0.05    -0.02  -0.02  -0.04
    21   6    -0.01   0.00  -0.02    -0.02  -0.02  -0.02    -0.01  -0.02  -0.01
    22   6     0.02   0.01   0.04     0.02  -0.02   0.06     0.01  -0.02   0.06
    23   6    -0.00  -0.00  -0.01    -0.01  -0.03  -0.01    -0.01  -0.03  -0.02
    24   6    -0.02  -0.01  -0.04    -0.03  -0.03  -0.04    -0.01  -0.03  -0.04
    25   6    -0.10  -0.04  -0.03    -0.03  -0.01  -0.02    -0.03  -0.02  -0.01
    26   6    -0.05   0.01   0.01    -0.01   0.00  -0.00    -0.02   0.00  -0.01
    27   6     0.05  -0.01   0.01     0.02   0.00  -0.01     0.02  -0.00  -0.01
    28   6     0.03   0.00  -0.07     0.02   0.01  -0.03     0.02  -0.01  -0.03
    29   6    -0.04  -0.03  -0.11    -0.01  -0.01  -0.04    -0.01  -0.01  -0.05
    30   6    -0.09   0.02  -0.08     0.00  -0.00  -0.01     0.02  -0.01  -0.00
    31   6    -0.10   0.05  -0.01     0.00  -0.00   0.00     0.02  -0.01   0.00
    32   6    -0.05   0.06   0.02     0.01  -0.00   0.01     0.02  -0.01   0.00
    33   6    -0.00  -0.01  -0.02     0.01  -0.01   0.00     0.01  -0.01   0.01
    34   6    -0.01  -0.03  -0.09     0.01  -0.01  -0.01     0.01  -0.00   0.01
    35   1     0.13  -0.25  -0.06     0.33   0.17   0.19     0.02   0.04  -0.02
    36   1    -0.12  -0.07  -0.18    -0.25   0.16   0.13     0.09  -0.17   0.10
    37   1    -0.16   0.05  -0.16    -0.35   0.02   0.01    -0.13  -0.18  -0.05
    38   1     0.08  -0.07   0.05     0.21  -0.15  -0.08    -0.10  -0.21  -0.20
    39   1     0.09   0.02   0.05     0.01  -0.06  -0.07     0.05  -0.04  -0.17
    40   1    -0.02   0.00  -0.04    -0.04  -0.03  -0.07    -0.04  -0.04  -0.08
    41   1    -0.01   0.00  -0.03    -0.01  -0.01  -0.03    -0.01  -0.02  -0.02
    42   1     0.04   0.02   0.11     0.05  -0.01   0.13     0.04  -0.01   0.13
    43   1    -0.00  -0.01  -0.00    -0.01  -0.03  -0.01    -0.02  -0.02  -0.04
    44   1    -0.03  -0.01  -0.07    -0.05  -0.05  -0.07    -0.03  -0.04  -0.06
    45   1    -0.14  -0.04  -0.01    -0.05  -0.02  -0.01    -0.05  -0.02  -0.01
    46   1    -0.07   0.03   0.07    -0.02   0.01   0.02    -0.04   0.02   0.01
    47   1     0.12  -0.02   0.06     0.05   0.00   0.01     0.04   0.00   0.00
    48   1     0.08   0.02  -0.09     0.03   0.01  -0.04     0.04  -0.00  -0.04
[...]
 Electronic               0.000              0.000              0.000
 Translational            0.784              2.981             43.805
 Rotational               0.784              2.981             36.338
 Vibrational            272.091             91.957             96.539
 Vibration     1          0.523              1.986              6.760
 Vibration     2          0.524              1.983              5.745
 Vibration     3          0.524              1.982              5.509
 Vibration     4          0.524              1.982              5.403
 Vibration     5          0.525              1.979              5.033
 Vibration     6          0.526              1.974              4.507
 Vibration     7          0.527              1.971              4.295
 Vibration     8          0.529              1.964              3.966
 Vibration     9          0.529              1.963              3.909
 Vibration    10          0.530              1.962              3.846
 Vibration    11          0.532              1.954              3.585
 Vibration    12          0.534              1.946              3.377
 Vibration    13          0.546              1.900              2.640
 Vibration    14          0.548              1.894              2.572
 Vibration    15          0.555              1.867              2.329
 Vibration    16          0.571              1.813              1.970
 Vibration    17          0.574              1.800              1.902
 Vibration    18          0.593              1.735              1.622
 Vibration    19          0.597              1.723              1.576
 Vibration    20          0.606              1.692              1.473
 Vibration    21          0.608              1.685              1.452
 Vibration    22          0.616              1.658              1.371
 Vibration    23          0.622              1.640              1.322
 Vibration    24          0.627              1.621              1.274
 Vibration    25          0.657              1.527              1.065
 Vibration    26          0.660              1.518              1.050
 Vibration    27          0.674              1.476              0.972
 Vibration    28          0.706              1.383              0.826
 Vibration    29          0.726              1.328              0.752
 Vibration    30          0.726              1.327              0.751
 Vibration    31          0.729              1.320              0.741
 Vibration    32          0.735              1.304              0.721
 Vibration    33          0.755              1.250              0.658
 Vibration    34          0.768              1.217              0.622
 Vibration    35          0.783              1.178              0.581
 Vibration    36          0.787              1.170              0.573
 Vibration    37          0.796              1.147              0.551
 Vibration    38          0.819              1.093              0.501
 Vibration    39          0.837              1.050              0.465
 Vibration    40          0.842              1.041              0.457
 Vibration    41          0.855              1.012              0.433
 Vibration    42          0.864              0.992              0.418
                       Q            Log10(Q)             Ln(Q)
 Total Bot       0.803151-189       -189.095203       -435.407795
 Total V=0       0.369762D+27         26.567922         61.174901
 Vib (Bot)       0.134023-204       -204.872820       -471.737101
 Vib (Bot)    1  0.110368D+02          1.042844          2.401237
 Vib (Bot)    2  0.661479D+01          0.820516          1.889309
 Vib (Bot)    3  0.587059D+01          0.768682          1.769955
 Vib (Bot)    4  0.556320D+01          0.745325          1.716174
 Vib (Bot)    5  0.461352D+01          0.664032          1.528991
 Vib (Bot)    6  0.352969D+01          0.547737          1.261211
 Vib (Bot)    7  0.316873D+01          0.500885          1.153329
 Vib (Bot)    8  0.267530D+01          0.427372          0.984062
 Vib (Bot)    9  0.259808D+01          0.414653          0.954773
 Vib (Bot)   10  0.251596D+01          0.400704          0.922655
 Vib (Bot)   11  0.219694D+01          0.341819          0.787067
 Vib (Bot)   12  0.197053D+01          0.294583          0.678301
 Vib (Bot)   13  0.132816D+01          0.123250          0.283794
 Vib (Bot)   14  0.127928D+01          0.106966          0.246298
 Vib (Bot)   15  0.111621D+01          0.047746          0.109940
 Vib (Bot)   16  0.905194D+00         -0.043258         -0.099606
 Vib (Bot)   17  0.868598D+00         -0.061181         -0.140875
 Vib (Bot)   18  0.728035D+00         -0.137848         -0.317406
 Vib (Bot)   19  0.706207D+00         -0.151068         -0.347847
 Vib (Bot)   20  0.659109D+00         -0.181042         -0.416866
 Vib (Bot)   21  0.649488D+00         -0.187429         -0.431570
 Vib (Bot)   22  0.613968D+00         -0.211854         -0.487813
 Vib (Bot)   23  0.592394D+00         -0.227389         -0.523582
 Vib (Bot)   24  0.572053D+00         -0.242564         -0.558523
 Vib (Bot)   25  0.486295D+00         -0.313100         -0.720940
 Vib (Bot)   26  0.480012D+00         -0.318748         -0.733943
 Vib (Bot)   27  0.449319D+00         -0.347445         -0.800022
 Vib (Bot)   28  0.392704D+00         -0.405935         -0.934700
 Vib (Bot)   29  0.364397D+00         -0.438425         -1.009511
 Vib (Bot)   30  0.363917D+00         -0.438997         -1.010828
 Vib (Bot)   31  0.360347D+00         -0.443279         -1.020688
 Vib (Bot)   32  0.352712D+00         -0.452579         -1.042102
 Vib (Bot)   33  0.328506D+00         -0.483457         -1.113201
 Vib (Bot)   34  0.315061D+00         -0.501605         -1.154988
 Vib (Bot)   35  0.299545D+00         -0.523537         -1.205489
 Vib (Bot)   36  0.296425D+00         -0.528085         -1.215960
 Vib (Bot)   37  0.287982D+00         -0.540634         -1.244857
 Vib (Bot)   38  0.268885D+00         -0.570434         -1.313473
 Vib (Bot)   39  0.254747D+00         -0.593891         -1.367485
 Vib (Bot)   40  0.251680D+00         -0.599152         -1.379598
 Vib (Bot)   41  0.242533D+00         -0.615229         -1.416617
 Vib (Bot)   42  0.236596D+00         -0.625993         -1.441403
 Vib (V=0)       0.617027D+11         10.790304         24.845594
 Vib (V=0)    1  0.115481D+02          1.062512          2.446525
 Vib (V=0)    2  0.713366D+01          0.853313          1.964825
 Vib (V=0)    3  0.639184D+01          0.805626          1.855023
 Vib (V=0)    4  0.608562D+01          0.784305          1.805929
 Vib (V=0)    5  0.514054D+01          0.711008          1.637157
 Vib (V=0)    6  0.406493D+01          0.609053          1.402397
 Vib (V=0)    7  0.370793D+01          0.569132          1.310474
 Vib (V=0)    8  0.322162D+01          0.508075          1.169885
 Vib (V=0)    9  0.314576D+01          0.497725          1.146054
 Vib (V=0)   10  0.306516D+01          0.486453          1.120101
 Vib (V=0)   11  0.275312D+01          0.439826          1.012736
 Vib (V=0)   12  0.253297D+01          0.403631          0.929394
 Vib (V=0)   13  0.191916D+01          0.283111          0.651886
 Vib (V=0)   14  0.187352D+01          0.272658          0.627819
 Vib (V=0)   15  0.172308D+01          0.236306          0.544114
 Vib (V=0)   16  0.153411D+01          0.185856          0.427948
 Vib (V=0)   17  0.150223D+01          0.176736          0.406950
 Vib (V=0)   18  0.138320D+01          0.140884          0.324397
 Vib (V=0)   19  0.136529D+01          0.135225          0.311368
 Vib (V=0)   20  0.132730D+01          0.122969          0.283147
 Vib (V=0)   21  0.131966D+01          0.120461          0.277371
 Vib (V=0)   22  0.129181D+01          0.111197          0.256041
 Vib (V=0)   23  0.127520D+01          0.105577          0.243101
 Vib (V=0)   24  0.125977D+01          0.100290          0.230926
 Vib (V=0)   25  0.119748D+01          0.078269          0.180222
 Vib (V=0)   26  0.119312D+01          0.076683          0.176570
 Vib (V=0)   27  0.117223D+01          0.069011          0.158904
 Vib (V=0)   28  0.113578D+01          0.055294          0.127320
 Vib (V=0)   29  0.111870D+01          0.048712          0.112164
 Vib (V=0)   30  0.111841D+01          0.048603          0.111912
 Vib (V=0)   31  0.111632D+01          0.047789          0.110037
 Vib (V=0)   32  0.111189D+01          0.046061          0.106059
 Vib (V=0)   33  0.109826D+01          0.040705          0.093728
 Vib (V=0)   34  0.109099D+01          0.037819          0.087081
 Vib (V=0)   35  0.108286D+01          0.034573          0.079607
 Vib (V=0)   36  0.108126D+01          0.033932          0.078131
 Vib (V=0)   37  0.107700D+01          0.032217          0.074183
 Vib (V=0)   38  0.106771D+01          0.028455          0.065520
 Vib (V=0)   39  0.106116D+01          0.025779          0.059359
 Vib (V=0)   40  0.105977D+01          0.025212          0.058052
 Vib (V=0)   41  0.105572D+01          0.023548          0.054221
 Vib (V=0)   42  0.105315D+01          0.022491          0.051788
 Electronic      0.100000D+01          0.000000          0.000000
 Translational   0.307339D+09          8.487617         19.543461
 Rotational      0.194985D+08          7.290000         16.785846
 ***** Axes restored to original set *****
 -------------------------------------------------------------------
 Center     Atomic                   Forces (Hartrees/Bohr)
 Number     Number              X              Y              Z
 -------------------------------------------------------------------
      1        6          -0.000001325   -0.000000066    0.000001150
      2        6           0.000001896   -0.000003929    0.000001618
      3        6          -0.000002243    0.000004232   -0.000003478
      4        6          -0.000001052   -0.000002178    0.000000905
      5        6           0.000005998   -0.000004251    0.000006978
      6        6           0.000005378    0.000004690   -0.000014527
      7        6          -0.000024817    0.000001266    0.000015383
      8        8          -0.000000981    0.000000141    0.000002571
      9        8           0.000005346    0.000001524    0.000006171
     10       16           0.000009774   -0.000002543   -0.000009664
     11        7           0.000019353    0.000000781    0.000008996
     12        8          -0.000019783    0.000006904   -0.000001609
     13        6           0.000002726   -0.000013356   -0.000005233
     14        7           0.000011625   -0.000017377    0.000008559
     15        6          -0.000000288    0.000004360    0.000005285
     16        7          -0.000009553    0.000014633   -0.000002480
     17        6          -0.000009758   -0.000000303   -0.000016700
     18        6          -0.000002066    0.000001063    0.000023527
     19       15           0.000006958   -0.000008497   -0.000000797
     20        6          -0.000000408   -0.000007738    0.000003242
     21        6           0.000003899    0.000007052   -0.000005187
     22        6          -0.000007156    0.000002026    0.000000304
     23        6           0.000000731   -0.000007347   -0.000001642
     24        6          -0.000001820    0.000005139   -0.000010503
     25        6           0.000000300   -0.000003603   -0.000003702
     26        6          -0.000002339    0.000004613    0.000008339
     27        6          -0.000003387   -0.000007830   -0.000006862
     28        6           0.000008223    0.000005285   -0.000006133
     29        6           0.000003379    0.000003722    0.000013968
     30        6           0.000006473    0.000000604   -0.000006650
     31        6          -0.000002741    0.000001655    0.000000341
     32        6          -0.000000451    0.000000390   -0.000004125
     33        6           0.000004052   -0.000002725    0.000001558
     34        6          -0.000006975    0.000005225   -0.000007596
     35        1          -0.000000589   -0.000003163   -0.000001438
     36        1          -0.000003320    0.000001355   -0.000001099
     37        1           0.000000831    0.000001092   -0.000000536
     38        1           0.000003970   -0.000001782    0.000000999
     39        1          -0.000001644    0.000001742   -0.000003706
     40        1          -0.000000465    0.000002056   -0.000000466
     41        1          -0.000001073   -0.000002001   -0.000000231
     42        1           0.000000258   -0.000000578   -0.000003169
     43        1          -0.000001043    0.000000715   -0.000002512
     44        1           0.000000592   -0.000001177    0.000001580
     45        1           0.000000618    0.000003284   -0.000000826
     46        1           0.000003410   -0.000001422    0.000004552
     47        1           0.000001949    0.000002227    0.000001704
     48        1          -0.000001736    0.000001470    0.000000727
     49        1           0.000000100   -0.000000014   -0.000003790
     50        1          -0.000002579    0.000002030    0.000001459
     51        1           0.000001302    0.000001155    0.000000530
     52        1           0.000000946    0.000001462    0.000002351
     53        1          -0.000000943    0.000000312    0.000000200
     54        1           0.000000447   -0.000002329    0.000001665
 -------------------------------------------------------------------
 Cartesian Forces:  Max     0.000024817 RMS     0.000006131
 FormGI is forming the generalized inverse of G from B-inverse, IUseBI=4.

 ----------------------------------------------------------------------

 Electric dipole moment (input orientation):
 (Debye = 10**-18 statcoulomb cm , SI units = C m)
                  (au)            (Debye)         (10**-30 SI)
   Tot        0.890805D+01      0.226420D+02      0.755256D+02
   x          0.738428D+01      0.187690D+02      0.626066D+02
   y          0.429752D+01      0.109232D+02      0.364359D+02
   z          0.252133D+01      0.640858D+01      0.213767D+02

 Dipole polarizability, Alpha (input orientation).
 (esu units = cm**3 , SI units = C**2 m**2 J**-1)
 Alpha(0;0):
               (au)            (10**-24 esu)      (10**-40 SI)
   iso        0.403429D+03      0.597820D+02      0.665164D+02
   aniso      0.979459D+02      0.145141D+02      0.161491D+02
   xx         0.440228D+03      0.652350D+02      0.725837D+02
   yx         0.372820D+01      0.552463D+00      0.614697D+00
   yy         0.394738D+03      0.584941D+02      0.650834D+02
   zx        -0.437611D+02     -0.648472D+01     -0.721523D+01
   zy         0.126089D+02      0.186844D+01      0.207892D+01
   zz         0.375321D+03      0.556168D+02      0.618820D+02

 ----------------------------------------------------------------------

 Dipole orientation:
     6         -3.16462636          5.41153073         -1.57313368
     6         -5.55249530          5.19446775         -0.50750208
     6         -7.21967960          3.37953696         -1.44718807
     6         -6.50792150          1.82368134         -3.43233456
     6         -4.09894380          2.03966213         -4.48615694
     6         -2.40332052          3.83962943         -3.55020539
     6          0.24283075          4.04378335         -4.66923230
     8          0.65870262         -1.56869952         -6.29547624
     8         -1.07085173         -0.00387329        -10.35960808
    16         -0.59995369          0.46659497         -7.69593269
     7          0.41439921          3.19946815         -7.24864858
     8         -3.56273164          0.42784063         -6.43061444
     6          1.90650779          2.62050134         -2.84763013
     7          2.79542877          1.18881856         -1.46302880
     6          1.66528373          1.42978451          4.57328440
     7          3.86583211         -0.47334523         -0.01314947
     6         -0.96027544         -2.34323998          1.59027953
     6          3.95265877         -3.63280388          4.02643208
    15          2.13046423         -1.22618838          2.48480079
     6         -0.22261218          3.19481120          3.99826246
     6         -0.47481420          5.36065563          5.46185882
     6          1.13992635          5.76595111          7.50181987
     6          3.01359764          4.00929065          8.08102115
     6          3.28887693          1.84368394          6.61753691
     6         -1.33910716         -3.17946334         -0.88721631
     6         -3.72338570         -3.99817353         -1.63043701
     6         -5.70942970         -4.01405600          0.09270909
     6         -5.33022459         -3.19495439          2.56833124
     6         -2.96469483         -2.34070269          3.32171668
     6          2.72891448         -5.55755015          5.35946964
     6          4.15363376         -7.36876498          6.62251914
     6          6.78251452         -7.26022061          6.55397092
     6          8.00016560         -5.34476708          5.21867600
     6          6.59440836         -3.52339450          3.95059587
     1         -1.84503959          6.81794125         -0.86174532
     1         -6.11384171          6.42922529          1.03019529
     1         -9.09226087          3.18065166         -0.63375787
     1         -7.78273672          0.40781323         -4.18852285
     1          0.86577750          6.01405421         -4.61245516
     1         -1.51331674          2.87730713          2.43378415
     1         -1.93946514          6.72442071          5.01301581
     1          0.93320353          7.45360001          8.64907705
     1          4.26225918          4.32236750          9.67680816
     1          4.75294306          0.48157638          7.07600604
     1          0.17950249         -3.13975425         -2.26405940
     1         -4.02110345         -4.58194133         -3.57202570
     1         -7.56961565         -4.64649980         -0.49693795
     1         -6.88372530         -3.19605179          3.90638521
     1         -2.69228573         -1.65343148          5.23648463
     1          0.68042522         -5.66333184          5.39770899
     1          3.20805862         -8.86997500          7.64963853
     1          7.88855287         -8.67989566          7.53787703
     1         10.04811304         -5.27074049          5.15753979
     1          7.53529211         -2.04052365          2.89266005

 Electric dipole moment (dipole orientation):
 (Debye = 10**-18 statcoulomb cm , SI units = C m)
                  (au)            (Debye)         (10**-30 SI)
   Tot        0.890805D+01      0.226420D+02      0.755256D+02
   x          0.000000D+00      0.000000D+00      0.000000D+00
   y          0.000000D+00      0.000000D+00      0.000000D+00
   z          0.890805D+01      0.226420D+02      0.755256D+02

 Dipole polarizability, Alpha (dipole orientation).
 (esu units = cm**3 , SI units = C**2 m**2 J**-1)
 Alpha(0;0):
               (au)            (10**-24 esu)      (10**-40 SI)
   iso        0.403429D+03      0.597820D+02      0.665164D+02
   aniso      0.979459D+02      0.145141D+02      0.161491D+02
   xx         0.430339D+03      0.637697D+02      0.709533D+02
   yx        -0.207322D+02     -0.307220D+01     -0.341828D+01
   yy         0.369616D+03      0.547714D+02      0.609414D+02
   zx         0.401042D+02      0.594283D+01      0.661229D+01
   zy         0.142151D+02      0.210646D+01      0.234375D+01
   zz         0.410331D+03      0.608048D+02      0.676545D+02

 ----------------------------------------------------------------------

 This type of calculation cannot be archived.


 ALL SCIENCE IS EITHER PHYSICS, OR STAMP COLLECTING.
   --ERNEST RUTHERFORD, 1871-1937.
 Job cpu time:       0 days  0 hours  0 minutes  2.1 seconds.
 Elapsed time:       0 days  0 hours  0 minutes  0.6 seconds.
 File lengths (MBytes):  RWF=      6 Int=      0 D2E=      0 Chk=      8 Scr=      1
 Normal termination of Gaussian 16 at Sat Apr  4 18:13:11 2020.
