 Entering Gaussian System, Link 0=g16
 Initial command:
 /apps/cent7/gaussian/g16-A.03/g16-haswell/g16/l1.exe "/scratch/brown/finej/0051_imine_mechanism/ts_631gd/cyclic_complete_2/new_logs_2/Gau-213376.inp" -scrdir="/scratch/brown/finej/0051_imine_mechanism/ts_631gd/cyclic_complete_2/new_logs_2/"
 Entering Link 1 = /apps/cent7/gaussian/g16-A.03/g16-haswell/g16/l1.exe PID=    213377.
  
 Copyright (c) 1988,1990,1992,1993,1995,1998,2003,2009,2016,
            Gaussian, Inc.  All Rights Reserved.
  
 This is part of the Gaussian(R) 16 program.  It is based on
 the Gaussian(R) 09 system (copyright 2009, Gaussian, Inc.),
 the Gaussian(R) 03 system (copyright 2003, Gaussian, Inc.),
 the Gaussian(R) 98 system (copyright 1998, Gaussian, Inc.),
 the Gaussian(R) 94 system (copyright 1995, Gaussian, Inc.),
 the Gaussian 92(TM) system (copyright 1992, Gaussian, Inc.),
 the Gaussian 90(TM) system (copyright 1990, Gaussian, Inc.),
 the Gaussian 88(TM) system (copyright 1988, Gaussian, Inc.),
 the Gaussian 86(TM) system (copyright 1986, Carnegie Mellon
 University), and the Gaussian 82(TM) system (copyright 1983,
 Carnegie Mellon University). Gaussian is a federally registered
 trademark of Gaussian, Inc.
  
 This software contains proprietary and confidential information,
 including trade secrets, belonging to Gaussian, Inc.
  
 This software is provided under written license and may be
 used, copied, transmitted, or stored only in accord with that
 written license.
  
 The following legend is applicable only to US Government
 contracts under FAR:
  
                    RESTRICTED RIGHTS LEGEND
  
 Use, reproduction and disclosure by the US Government is
 subject to restrictions as set forth in subparagraphs (a)
 and (c) of the Commercial Computer Software - Restricted
 Rights clause in FAR 52.227-19.
  
 Gaussian, Inc.
 340 Quinnipiac St., Bldg. 40, Wallingford CT 06492
  
  
 ---------------------------------------------------------------
 Warning -- This program may not be used in any manner that
 competes with the business of Gaussian, Inc. or will provide
 assistance to any competitor of Gaussian, Inc.  The licensee
 of this program is prohibited from giving any competitor of
 Gaussian, Inc. access to this program.  By using this program,
 the user acknowledges that Gaussian, Inc. is engaged in the
 business of creating and licensing software in the field of
 computational chemistry and represents and warrants to the
 licensee that it is not a competitor of Gaussian, Inc. and that
 it will not use this program in any manner prohibited above.
 ---------------------------------------------------------------
  

 Cite this work as:
 Gaussian 16, Revision A.03,
 M. J. Frisch, G. W. Trucks, H. B. Schlegel, G. E. Scuseria, 
 M. A. Robb, J. R. Cheeseman, G. Scalmani, V. Barone, 
 G. A. Petersson, H. Nakatsuji, X. Li, M. Caricato, A. V. Marenich, 
 J. Bloino, B. G. Janesko, R. Gomperts, B. Mennucci, H. P. Hratchian, 
 J. V. Ortiz, A. F. Izmaylov, J. L. Sonnenberg, D. Williams-Young, 
 F. Ding, F. Lipparini, F. Egidi, J. Goings, B. Peng, A. Petrone, 
 T. Henderson, D. Ranasinghe, V. G. Zakrzewski, J. Gao, N. Rega, 
 G. Zheng, W. Liang, M. Hada, M. Ehara, K. Toyota, R. Fukuda, 
 J. Hasegawa, M. Ishida, T. Nakajima, Y. Honda, O. Kitao, H. Nakai, 
 T. Vreven, K. Throssell, J. A. Montgomery, Jr., J. E. Peralta, 
 F. Ogliaro, M. J. Bearpark, J. J. Heyd, E. N. Brothers, K. N. Kudin, 
 V. N. Staroverov, T. A. Keith, R. Kobayashi, J. Normand, 
 K. Raghavachari, A. P. Rendell, J. C. Burant, S. S. Iyengar, 
 J. Tomasi, M. Cossi, J. M. Millam, M. Klene, C. Adamo, R. Cammi, 
 J. W. Ochterski, R. L. Martin, K. Morokuma, O. Farkas, 
 J. B. Foresman, and D. J. Fox, Gaussian, Inc., Wallingford CT, 2016.
 
 ******************************************
 Gaussian 16:  ES64L-G16RevA.03 25-Dec-2016
                 4-Apr-2020 
 ******************************************
 %nprocshared=4
 Will use up to    4 processors via shared memory.
 %mem=1GB
 %oldchk=chk/cyclic_5.chk
 Copying data from "chk/cyclic_5.chk" to current chk file "/scratch/brown/finej/0051_imine_mechanism/ts_631gd/cyclic_complete_2/new_logs_2/Gau-213377.chk"
 IOpt=  2 FromEx=T IUOpen= 4 IOptOp= 5 NList=   0 IFRang= 0 IUIn= 4 IUOut= 2.
 ----------------------------------------------------------------------
 # freq=readfc wb97xd/6-31g(d) scrf=solvent=dichloromethane geom=check 
 temperature=263.15
 ----------------------------------------------------------------------
 1/29=2,38=1,112=263150,172=1/1;
 2/12=2,40=1/2;
 7/8=1,25=11/16;
 99/5=2/99;
 -----------------------------
 Oxazaphosphetine Intermediate
 -----------------------------
 Structure from the checkpoint file:  "/scratch/brown/finej/0051_imine_mechanism/ts_631gd/cyclic_complete_2/new_logs_2/Gau-213377.chk"
 Charge =  0 Multiplicity = 1
 Redundant internal coordinates found in file.  (old form).
 C,0,3.5572551678,1.9677196503,1.1750256013
 C,0,4.3544542497,3.1038772966,1.2115343915
 C,0,5.2739516247,3.3387954738,0.1904349642
 C,0,5.3990687746,2.4331697556,-0.8545076027
 C,0,4.5892598003,1.3054797849,-0.8731259164
 C,0,3.6480596426,1.0542613164,0.1227639105
 C,0,2.7578126105,-0.1791699312,0.1163804862
 O,0,4.1912629393,-1.6225180564,-3.1342563551
 O,0,5.1727225082,-1.6970328812,-0.8248725239
 S,0,4.3015824351,-1.0794642091,-1.8047784912
 N,0,2.7820981115,-0.8051702782,-1.2173033311
 O,0,4.7538147712,0.4642468414,-1.978923774
 C,0,0.3101765998,3.633028003,0.5719042886
 C,0,0.1261910393,4.9514696808,0.9852676756
 C,0,-1.1021753451,5.3611158087,1.4933398749
 C,0,-2.1518329559,4.4472401323,1.5887864239
 C,0,-1.9711227796,3.1332284697,1.1754002361
 O,0,-1.637601523,0.8165988752,-0.4997018852
 C,0,-0.7387784996,2.7215691402,0.6626537933
 C,0,-0.5587537268,1.2696540806,0.2797770795
 O,0,0.7044097549,1.0730969154,-0.3563786425
 C,0,1.3397574928,0.164200031,0.4304094893
 N,0,0.6657128417,-0.310570092,1.4052970767
 C,0,-0.9757589156,-2.0432686682,-0.1926542419
 N,0,-0.6011152117,0.2865094961,1.3410823717
 C,0,-3.4098889812,-0.9036903067,-0.934817375
 C,0,-2.9817951084,-0.9238030676,1.8336467765
 P,0,-2.0246726962,-0.6320906796,0.2901721163
 C,0,-0.6552503883,-3.0896390684,0.6722684858
 C,0,0.1850668987,-4.1137686024,0.2450057656
 C,0,0.7155823968,-4.0945666035,-1.0426624246
 C,0,0.3952514825,-3.0510431976,-1.9105229989
 C,0,-0.4486062795,-2.0266486463,-1.4867002804
 C,0,-3.8372639644,-2.2088642514,-1.2063255812
 C,0,-4.9150516671,-2.4477874788,-2.0527001204
 C,0,-5.5899422284,-1.3805293214,-2.6408147535
 C,0,-5.1796446818,-0.0774624747,-2.375559973
 C,0,-4.098668692,0.1595036346,-1.5287512645
 C,0,-2.3007815934,-1.1686304046,3.035613837
 C,0,-3.0031872386,-1.4592385489,4.1981583692
 C,0,-4.3970118681,-1.4632182622,4.1916428006
 C,0,-5.0826867484,-1.1883206605,3.0136892614
 C,0,-4.3814546501,-0.9337451246,1.8375507747
 H,0,2.8357964796,1.785495786,1.967062156
 H,0,4.2571934695,3.8042459021,2.0340145496
 H,0,5.8999963141,4.224582169,0.2088739266
 H,0,6.11177701,2.5834425876,-1.6577381366
 H,0,3.0902723533,-0.8795483646,0.8930239112
 H,0,2.2107556855,-1.6493233384,-1.2781664033
 H,0,1.2687330305,3.3162140818,0.1760673547
 H,0,0.9483167409,5.6566030297,0.9081993654
 H,0,-1.2442080011,6.3881247448,1.8159238709
 H,0,-3.112700245,4.7600935941,1.9858531536
 H,0,-2.7893168778,2.4230733424,1.2555761116
 H,0,-1.0581423141,-3.1132246313,1.6793846096
 H,0,0.4268563044,-4.9268950058,0.9217994911
 H,0,1.3728101776,-4.8927418974,-1.3729186473
 H,0,0.7990088038,-3.0335040074,-2.9185833255
 H,0,-0.6930097742,-1.2145676439,-2.1654765212
 H,0,-3.3260784699,-3.0539627941,-0.753306805
 H,0,-5.2268818157,-3.468422316,-2.2530304116
 H,0,-6.4308609154,-1.5646238562,-3.3027157023
 H,0,-5.6996321641,0.7609131707,-2.8294834688
 H,0,-3.7902470399,1.1799974005,-1.3316298556
 H,0,-1.2186765777,-1.1213386117,3.064011741
 H,0,-2.4604841452,-1.6649125828,5.1153851366
 H,0,-4.9449842174,-1.672463921,5.1053050136
 H,0,-6.1679562155,-1.17648474,3.002123202
 H,0,-4.9365258514,-0.7363735649,0.9287313611
 Recover connectivity data from disk.
                           ----------------------------
                           !    Current Parameters    !
                           ! (Angstroms and Degrees)  !
 --------------------------                            --------------------------
 ! Name  Definition              Value          Derivative Info.                !
 --------------------------------------------------------------------------------
 ! R1    R(1,2)                  1.3884         estimate D2E/DX2                !
 ! R2    R(1,6)                  1.3964         estimate D2E/DX2                !
 ! R3    R(1,44)                 1.0868         estimate D2E/DX2                !
 ! R4    R(2,3)                  1.394          estimate D2E/DX2                !
 ! R5    R(2,45)                 1.0846         estimate D2E/DX2                !
 ! R6    R(3,4)                  1.3884         estimate D2E/DX2                !
 ! R7    R(3,46)                 1.0848         estimate D2E/DX2                !
 ! R8    R(4,5)                  1.3885         estimate D2E/DX2                !
 ! R9    R(4,47)                 1.0843         estimate D2E/DX2                !
 ! R10   R(5,6)                  1.3931         estimate D2E/DX2                !
 ! R11   R(5,12)                 1.3991         estimate D2E/DX2                !
 ! R12   R(6,7)                  1.5212         estimate D2E/DX2                !
 ! R13   R(7,11)                 1.4735         estimate D2E/DX2                !
 ! R14   R(7,22)                 1.4924         estimate D2E/DX2                !
 ! R15   R(7,48)                 1.0974         estimate D2E/DX2                !
 ! R16   R(8,10)                 1.4403         estimate D2E/DX2                !
 ! R17   R(9,10)                 1.4493         estimate D2E/DX2                !
 ! R18   R(10,11)                1.652          estimate D2E/DX2                !
 ! R19   R(10,12)                1.618          estimate D2E/DX2                !
 ! R20   R(11,49)                1.0211         estimate D2E/DX2                !
 ! R21   R(13,14)                1.3939         estimate D2E/DX2                !
 ! R22   R(13,19)                1.3926         estimate D2E/DX2                !
 ! R23   R(13,50)                1.0844         estimate D2E/DX2                !
 ! R24   R(14,15)                1.391          estimate D2E/DX2                !
 ! R25   R(14,51)                1.0858         estimate D2E/DX2                !
 ! R26   R(15,16)                1.395          estimate D2E/DX2                !
 ! R27   R(15,52)                1.0858         estimate D2E/DX2                !
 ! R28   R(16,17)                1.3893         estimate D2E/DX2                !
 ! R29   R(16,53)                1.0857         estimate D2E/DX2                !
 ! R30   R(17,19)                1.3968         estimate D2E/DX2                !
 ! R31   R(17,54)                1.0864         estimate D2E/DX2                !
 ! R32   R(18,20)                1.406          estimate D2E/DX2                !
 ! R33   R(18,28)                1.6948         estimate D2E/DX2                !
 ! R34   R(19,20)                1.5123         estimate D2E/DX2                !
 ! R35   R(20,21)                1.4279         estimate D2E/DX2                !
 ! R36   R(20,25)                1.4473         estimate D2E/DX2                !
 ! R37   R(21,22)                1.3597         estimate D2E/DX2                !
 ! R38   R(22,23)                1.2768         estimate D2E/DX2                !
 ! R39   R(23,25)                1.402          estimate D2E/DX2                !
 ! R40   R(24,28)                1.8234         estimate D2E/DX2                !
 ! R41   R(24,29)                1.3949         estimate D2E/DX2                !
 ! R42   R(24,33)                1.3974         estimate D2E/DX2                !
 ! R43   R(26,28)                1.869          estimate D2E/DX2                !
 ! R44   R(26,34)                1.3999         estimate D2E/DX2                !
 ! R45   R(26,38)                1.3991         estimate D2E/DX2                !
 ! R46   R(27,28)                1.8394         estimate D2E/DX2                !
 ! R47   R(27,39)                1.403          estimate D2E/DX2                !
 ! R48   R(27,43)                1.3997         estimate D2E/DX2                !
 ! R49   R(29,30)                1.392          estimate D2E/DX2                !
 ! R50   R(29,55)                1.085          estimate D2E/DX2                !
 ! R51   R(30,31)                1.3928         estimate D2E/DX2                !
 ! R52   R(30,56)                1.0852         estimate D2E/DX2                !
 ! R53   R(31,32)                1.3945         estimate D2E/DX2                !
 ! R54   R(31,57)                1.0854         estimate D2E/DX2                !
 ! R55   R(32,33)                1.3932         estimate D2E/DX2                !
 ! R56   R(32,58)                1.0861         estimate D2E/DX2                !
 ! R57   R(33,59)                1.0863         estimate D2E/DX2                !
 ! R58   R(34,35)                1.3911         estimate D2E/DX2                !
 ! R59   R(34,60)                1.0866         estimate D2E/DX2                !
 ! R60   R(35,36)                1.393          estimate D2E/DX2                !
 ! R61   R(35,61)                1.0858         estimate D2E/DX2                !
 ! R62   R(36,37)                1.3916         estimate D2E/DX2                !
 ! R63   R(36,62)                1.0859         estimate D2E/DX2                !
 ! R64   R(37,38)                1.3935         estimate D2E/DX2                !
 ! R65   R(37,63)                1.086          estimate D2E/DX2                !
 ! R66   R(38,64)                1.0842         estimate D2E/DX2                !
 ! R67   R(39,40)                1.389          estimate D2E/DX2                !
 ! R68   R(39,65)                1.0835         estimate D2E/DX2                !
 ! R69   R(40,41)                1.3938         estimate D2E/DX2                !
 ! R70   R(40,66)                1.0854         estimate D2E/DX2                !
 ! R71   R(41,42)                1.3904         estimate D2E/DX2                !
 ! R72   R(41,67)                1.0857         estimate D2E/DX2                !
 ! R73   R(42,43)                1.3928         estimate D2E/DX2                !
 ! R74   R(42,68)                1.0854         estimate D2E/DX2                !
 ! R75   R(43,69)                1.0831         estimate D2E/DX2                !
 ! A1    A(2,1,6)              121.1834         estimate D2E/DX2                !
 ! A2    A(2,1,44)             119.9487         estimate D2E/DX2                !
 ! A3    A(6,1,44)             118.8608         estimate D2E/DX2                !
 ! A4    A(1,2,3)              119.8258         estimate D2E/DX2                !
 ! A5    A(1,2,45)             119.7916         estimate D2E/DX2                !
 ! A6    A(3,2,45)             120.3826         estimate D2E/DX2                !
 ! A7    A(2,3,4)              120.0526         estimate D2E/DX2                !
 ! A8    A(2,3,46)             120.3837         estimate D2E/DX2                !
 ! A9    A(4,3,46)             119.5625         estimate D2E/DX2                !
 ! A10   A(3,4,5)              119.1632         estimate D2E/DX2                !
 ! A11   A(3,4,47)             121.7594         estimate D2E/DX2                !
 ! A12   A(5,4,47)             119.0774         estimate D2E/DX2                !
 ! A13   A(4,5,6)              122.0676         estimate D2E/DX2                !
 ! A14   A(4,5,12)             115.4888         estimate D2E/DX2                !
 ! A15   A(6,5,12)             122.4139         estimate D2E/DX2                !
 ! A16   A(1,6,5)              117.6885         estimate D2E/DX2                !
 ! A17   A(1,6,7)              119.7045         estimate D2E/DX2                !
 ! A18   A(5,6,7)              122.5893         estimate D2E/DX2                !
 ! A19   A(6,7,11)             109.7937         estimate D2E/DX2                !
 ! A20   A(6,7,22)             111.6314         estimate D2E/DX2                !
 ! A21   A(6,7,48)             109.7084         estimate D2E/DX2                !
 ! A22   A(11,7,22)            107.6891         estimate D2E/DX2                !
 ! A23   A(11,7,48)            111.3729         estimate D2E/DX2                !
 ! A24   A(22,7,48)            106.6056         estimate D2E/DX2                !
 ! A25   A(8,10,9)             120.6277         estimate D2E/DX2                !
 ! A26   A(8,10,11)            108.6865         estimate D2E/DX2                !
 ! A27   A(8,10,12)            106.3667         estimate D2E/DX2                !
 ! A28   A(9,10,11)            112.5298         estimate D2E/DX2                !
 ! A29   A(9,10,12)            108.1389         estimate D2E/DX2                !
 ! A30   A(11,10,12)            97.8708         estimate D2E/DX2                !
 ! A31   A(7,11,10)            114.052          estimate D2E/DX2                !
 ! A32   A(7,11,49)            113.3241         estimate D2E/DX2                !
 ! A33   A(10,11,49)           110.8652         estimate D2E/DX2                !
 ! A34   A(5,12,10)            117.1111         estimate D2E/DX2                !
 ! A35   A(14,13,19)           120.0213         estimate D2E/DX2                !
 ! A36   A(14,13,50)           120.0838         estimate D2E/DX2                !
 ! A37   A(19,13,50)           119.8946         estimate D2E/DX2                !
 ! A38   A(13,14,15)           120.2274         estimate D2E/DX2                !
 ! A39   A(13,14,51)           119.5541         estimate D2E/DX2                !
 ! A40   A(15,14,51)           120.2185         estimate D2E/DX2                !
 ! A41   A(14,15,16)           119.7709         estimate D2E/DX2                !
 ! A42   A(14,15,52)           120.1712         estimate D2E/DX2                !
 ! A43   A(16,15,52)           120.0579         estimate D2E/DX2                !
 ! A44   A(15,16,17)           120.0906         estimate D2E/DX2                !
 ! A45   A(15,16,53)           120.1429         estimate D2E/DX2                !
 ! A46   A(17,16,53)           119.7665         estimate D2E/DX2                !
 ! A47   A(16,17,19)           120.1807         estimate D2E/DX2                !
 ! A48   A(16,17,54)           119.8907         estimate D2E/DX2                !
 ! A49   A(19,17,54)           119.928          estimate D2E/DX2                !
 ! A50   A(20,18,28)           101.0873         estimate D2E/DX2                !
 ! A51   A(13,19,17)           119.7084         estimate D2E/DX2                !
 ! A52   A(13,19,20)           121.4805         estimate D2E/DX2                !
 ! A53   A(17,19,20)           118.7448         estimate D2E/DX2                !
 ! A54   A(18,20,19)           111.0012         estimate D2E/DX2                !
 ! A55   A(18,20,21)           112.7958         estimate D2E/DX2                !
 ! A56   A(18,20,25)            99.5083         estimate D2E/DX2                !
 ! A57   A(19,20,21)           110.5031         estimate D2E/DX2                !
 ! A58   A(19,20,25)           117.5826         estimate D2E/DX2                !
 ! A59   A(21,20,25)           105.0154         estimate D2E/DX2                !
 ! A60   A(20,21,22)           104.3342         estimate D2E/DX2                !
 ! A61   A(7,22,21)            118.4255         estimate D2E/DX2                !
 ! A62   A(7,22,23)            125.2204         estimate D2E/DX2                !
 ! A63   A(21,22,23)           116.3408         estimate D2E/DX2                !
 ! A64   A(22,23,25)           106.4813         estimate D2E/DX2                !
 ! A65   A(28,24,29)           123.2675         estimate D2E/DX2                !
 ! A66   A(28,24,33)           116.9372         estimate D2E/DX2                !
 ! A67   A(29,24,33)           119.7653         estimate D2E/DX2                !
 ! A68   A(20,25,23)           107.244          estimate D2E/DX2                !
 ! A69   A(28,26,34)           119.2652         estimate D2E/DX2                !
 ! A70   A(28,26,38)           122.1857         estimate D2E/DX2                !
 ! A71   A(34,26,38)           118.4141         estimate D2E/DX2                !
 ! A72   A(28,27,39)           119.6019         estimate D2E/DX2                !
 ! A73   A(28,27,43)           121.5867         estimate D2E/DX2                !
 ! A74   A(39,27,43)           118.7998         estimate D2E/DX2                !
 ! A75   A(18,28,24)           114.0006         estimate D2E/DX2                !
 ! A76   A(18,28,26)            89.3136         estimate D2E/DX2                !
 ! A77   A(18,28,27)           130.2002         estimate D2E/DX2                !
 ! A78   A(24,28,26)            98.067          estimate D2E/DX2                !
 ! A79   A(24,28,27)           113.502          estimate D2E/DX2                !
 ! A80   A(26,28,27)            98.1216         estimate D2E/DX2                !
 ! A81   A(24,29,30)           120.0202         estimate D2E/DX2                !
 ! A82   A(24,29,55)           120.4347         estimate D2E/DX2                !
 ! A83   A(30,29,55)           119.5451         estimate D2E/DX2                !
 ! A84   A(29,30,31)           120.2375         estimate D2E/DX2                !
 ! A85   A(29,30,56)           119.6274         estimate D2E/DX2                !
 ! A86   A(31,30,56)           120.135          estimate D2E/DX2                !
 ! A87   A(30,31,32)           119.8793         estimate D2E/DX2                !
 ! A88   A(30,31,57)           120.1194         estimate D2E/DX2                !
 ! A89   A(32,31,57)           120.0005         estimate D2E/DX2                !
 ! A90   A(31,32,33)           120.0005         estimate D2E/DX2                !
 ! A91   A(31,32,58)           120.2866         estimate D2E/DX2                !
 ! A92   A(33,32,58)           119.7128         estimate D2E/DX2                !
 ! A93   A(24,33,32)           120.0955         estimate D2E/DX2                !
 ! A94   A(24,33,59)           120.1772         estimate D2E/DX2                !
 ! A95   A(32,33,59)           119.7271         estimate D2E/DX2                !
 ! A96   A(26,34,35)           120.9747         estimate D2E/DX2                !
 ! A97   A(26,34,60)           120.0407         estimate D2E/DX2                !
 ! A98   A(35,34,60)           118.9847         estimate D2E/DX2                !
 ! A99   A(34,35,36)           120.0443         estimate D2E/DX2                !
 ! A100  A(34,35,61)           119.7486         estimate D2E/DX2                !
 ! A101  A(36,35,61)           120.2071         estimate D2E/DX2                !
 ! A102  A(35,36,37)           119.6094         estimate D2E/DX2                !
 ! A103  A(35,36,62)           120.1758         estimate D2E/DX2                !
 ! A104  A(37,36,62)           120.2148         estimate D2E/DX2                !
 ! A105  A(36,37,38)           120.2499         estimate D2E/DX2                !
 ! A106  A(36,37,63)           120.1344         estimate D2E/DX2                !
 ! A107  A(38,37,63)           119.6156         estimate D2E/DX2                !
 ! A108  A(26,38,37)           120.7065         estimate D2E/DX2                !
 ! A109  A(26,38,64)           119.8709         estimate D2E/DX2                !
 ! A110  A(37,38,64)           119.4226         estimate D2E/DX2                !
 ! A111  A(27,39,40)           120.536          estimate D2E/DX2                !
 ! A112  A(27,39,65)           119.9736         estimate D2E/DX2                !
 ! A113  A(40,39,65)           119.4872         estimate D2E/DX2                !
 ! A114  A(39,40,41)           120.1567         estimate D2E/DX2                !
 ! A115  A(39,40,66)           119.6086         estimate D2E/DX2                !
 ! A116  A(41,40,66)           120.2249         estimate D2E/DX2                !
 ! A117  A(40,41,42)           119.7705         estimate D2E/DX2                !
 ! A118  A(40,41,67)           120.0865         estimate D2E/DX2                !
 ! A119  A(42,41,67)           120.1411         estimate D2E/DX2                !
 ! A120  A(41,42,43)           120.2162         estimate D2E/DX2                !
 ! A121  A(41,42,68)           120.2826         estimate D2E/DX2                !
 ! A122  A(43,42,68)           119.5002         estimate D2E/DX2                !
 ! A123  A(27,43,42)           120.4719         estimate D2E/DX2                !
 ! A124  A(27,43,69)           120.5876         estimate D2E/DX2                !
 ! A125  A(42,43,69)           118.9389         estimate D2E/DX2                !
 ! D1    D(6,1,2,3)             -0.6246         estimate D2E/DX2                !
 ! D2    D(6,1,2,45)           179.2998         estimate D2E/DX2                !
 ! D3    D(44,1,2,3)          -179.6515         estimate D2E/DX2                !
 ! D4    D(44,1,2,45)            0.2729         estimate D2E/DX2                !
 ! D5    D(2,1,6,5)              1.5213         estimate D2E/DX2                !
 ! D6    D(2,1,6,7)           -179.9694         estimate D2E/DX2                !
 ! D7    D(44,1,6,5)          -179.4414         estimate D2E/DX2                !
 ! D8    D(44,1,6,7)            -0.9321         estimate D2E/DX2                !
 ! D9    D(1,2,3,4)             -0.5075         estimate D2E/DX2                !
 ! D10   D(1,2,3,46)           179.8793         estimate D2E/DX2                !
 ! D11   D(45,2,3,4)           179.5686         estimate D2E/DX2                !
 ! D12   D(45,2,3,46)           -0.0447         estimate D2E/DX2                !
 ! D13   D(2,3,4,5)              0.6843         estimate D2E/DX2                !
 ! D14   D(2,3,4,47)          -179.3933         estimate D2E/DX2                !
 ! D15   D(46,3,4,5)          -179.6993         estimate D2E/DX2                !
 ! D16   D(46,3,4,47)            0.2232         estimate D2E/DX2                !
 ! D17   D(3,4,5,6)              0.2642         estimate D2E/DX2                !
 ! D18   D(3,4,5,12)           178.3276         estimate D2E/DX2                !
 ! D19   D(47,4,5,6)          -179.6604         estimate D2E/DX2                !
 ! D20   D(47,4,5,12)           -1.597          estimate D2E/DX2                !
 ! D21   D(4,5,6,1)             -1.3481         estimate D2E/DX2                !
 ! D22   D(4,5,6,7)           -179.8114         estimate D2E/DX2                !
 ! D23   D(12,5,6,1)          -179.2773         estimate D2E/DX2                !
 ! D24   D(12,5,6,7)             2.2594         estimate D2E/DX2                !
 ! D25   D(4,5,12,10)          157.1375         estimate D2E/DX2                !
 ! D26   D(6,5,12,10)          -24.8065         estimate D2E/DX2                !
 ! D27   D(1,6,7,11)           166.0707         estimate D2E/DX2                !
 ! D28   D(1,6,7,22)            46.7223         estimate D2E/DX2                !
 ! D29   D(1,6,7,48)           -71.2223         estimate D2E/DX2                !
 ! D30   D(5,6,7,11)           -15.4959         estimate D2E/DX2                !
 ! D31   D(5,6,7,22)          -134.8443         estimate D2E/DX2                !
 ! D32   D(5,6,7,48)           107.2111         estimate D2E/DX2                !
 ! D33   D(6,7,11,10)           51.0468         estimate D2E/DX2                !
 ! D34   D(6,7,11,49)          179.1575         estimate D2E/DX2                !
 ! D35   D(22,7,11,10)         172.7828         estimate D2E/DX2                !
 ! D36   D(22,7,11,49)         -59.1065         estimate D2E/DX2                !
 ! D37   D(48,7,11,10)         -70.6702         estimate D2E/DX2                !
 ! D38   D(48,7,11,49)          57.4404         estimate D2E/DX2                !
 ! D39   D(6,7,22,21)           57.3044         estimate D2E/DX2                !
 ! D40   D(6,7,22,23)         -121.3133         estimate D2E/DX2                !
 ! D41   D(11,7,22,21)         -63.2825         estimate D2E/DX2                !
 ! D42   D(11,7,22,23)         118.0998         estimate D2E/DX2                !
 ! D43   D(48,7,22,21)         177.0951         estimate D2E/DX2                !
 ! D44   D(48,7,22,23)          -1.5226         estimate D2E/DX2                !
 ! D45   D(8,10,11,7)         -176.9156         estimate D2E/DX2                !
 ! D46   D(8,10,11,49)          53.7292         estimate D2E/DX2                !
 ! D47   D(9,10,11,7)           46.8194         estimate D2E/DX2                !
 ! D48   D(9,10,11,49)         -82.5359         estimate D2E/DX2                !
 ! D49   D(12,10,11,7)         -66.6086         estimate D2E/DX2                !
 ! D50   D(12,10,11,49)        164.0361         estimate D2E/DX2                !
 ! D51   D(8,10,12,5)          163.4771         estimate D2E/DX2                !
 ! D52   D(9,10,12,5)          -65.6068         estimate D2E/DX2                !
 ! D53   D(11,10,12,5)          51.2861         estimate D2E/DX2                !
 ! D54   D(19,13,14,15)          0.2071         estimate D2E/DX2                !
 ! D55   D(19,13,14,51)       -179.8063         estimate D2E/DX2                !
 ! D56   D(50,13,14,15)        179.9928         estimate D2E/DX2                !
 ! D57   D(50,13,14,51)         -0.0205         estimate D2E/DX2                !
 ! D58   D(14,13,19,17)         -0.3297         estimate D2E/DX2                !
 ! D59   D(14,13,19,20)       -177.3306         estimate D2E/DX2                !
 ! D60   D(50,13,19,17)        179.8841         estimate D2E/DX2                !
 ! D61   D(50,13,19,20)          2.8833         estimate D2E/DX2                !
 ! D62   D(13,14,15,16)          0.017          estimate D2E/DX2                !
 ! D63   D(13,14,15,52)        179.9433         estimate D2E/DX2                !
 ! D64   D(51,14,15,16)       -179.9696         estimate D2E/DX2                !
 ! D65   D(51,14,15,52)         -0.0433         estimate D2E/DX2                !
 ! D66   D(14,15,16,17)         -0.1169         estimate D2E/DX2                !
 ! D67   D(14,15,16,53)        179.9061         estimate D2E/DX2                !
 ! D68   D(52,15,16,17)        179.9568         estimate D2E/DX2                !
 ! D69   D(52,15,16,53)         -0.0202         estimate D2E/DX2                !
 ! D70   D(15,16,17,19)         -0.007          estimate D2E/DX2                !
 ! D71   D(15,16,17,54)        179.7096         estimate D2E/DX2                !
 ! D72   D(53,16,17,19)        179.9701         estimate D2E/DX2                !
 ! D73   D(53,16,17,54)         -0.3133         estimate D2E/DX2                !
 ! D74   D(16,17,19,13)          0.2304         estimate D2E/DX2                !
 ! D75   D(16,17,19,20)        177.3133         estimate D2E/DX2                !
 ! D76   D(54,17,19,13)       -179.4861         estimate D2E/DX2                !
 ! D77   D(54,17,19,20)         -2.4033         estimate D2E/DX2                !
 ! D78   D(28,18,20,19)       -131.457          estimate D2E/DX2                !
 ! D79   D(28,18,20,21)        103.9109         estimate D2E/DX2                !
 ! D80   D(28,18,20,25)         -6.9032         estimate D2E/DX2                !
 ! D81   D(20,18,28,24)        -82.0858         estimate D2E/DX2                !
 ! D82   D(20,18,28,26)        179.3864         estimate D2E/DX2                !
 ! D83   D(20,18,28,27)         79.3162         estimate D2E/DX2                !
 ! D84   D(13,19,20,18)       -135.2689         estimate D2E/DX2                !
 ! D85   D(13,19,20,21)         -9.3501         estimate D2E/DX2                !
 ! D86   D(13,19,20,25)        111.1419         estimate D2E/DX2                !
 ! D87   D(17,19,20,18)         47.7021         estimate D2E/DX2                !
 ! D88   D(17,19,20,21)        173.6209         estimate D2E/DX2                !
 ! D89   D(17,19,20,25)        -65.8871         estimate D2E/DX2                !
 ! D90   D(18,20,21,22)       -114.3332         estimate D2E/DX2                !
 ! D91   D(19,20,21,22)        120.7628         estimate D2E/DX2                !
 ! D92   D(25,20,21,22)         -6.9804         estimate D2E/DX2                !
 ! D93   D(18,20,25,23)        124.4295         estimate D2E/DX2                !
 ! D94   D(19,20,25,23)       -115.7376         estimate D2E/DX2                !
 ! D95   D(21,20,25,23)          7.5792         estimate D2E/DX2                !
 ! D96   D(20,21,22,7)        -174.4714         estimate D2E/DX2                !
 ! D97   D(20,21,22,23)          4.2686         estimate D2E/DX2                !
 ! D98   D(7,22,23,25)         179.2331         estimate D2E/DX2                !
 ! D99   D(21,22,23,25)          0.5895         estimate D2E/DX2                !
 ! D100  D(22,23,25,20)         -5.1911         estimate D2E/DX2                !
 ! D101  D(29,24,28,18)        148.98           estimate D2E/DX2                !
 ! D102  D(29,24,28,26)       -118.162          estimate D2E/DX2                !
 ! D103  D(29,24,28,27)        -15.6158         estimate D2E/DX2                !
 ! D104  D(33,24,28,18)        -29.0212         estimate D2E/DX2                !
 ! D105  D(33,24,28,26)         63.8368         estimate D2E/DX2                !
 ! D106  D(33,24,28,27)        166.383          estimate D2E/DX2                !
 ! D107  D(28,24,29,30)       -178.057          estimate D2E/DX2                !
 ! D108  D(28,24,29,55)          2.0309         estimate D2E/DX2                !
 ! D109  D(33,24,29,30)         -0.1098         estimate D2E/DX2                !
 ! D110  D(33,24,29,55)        179.9781         estimate D2E/DX2                !
 ! D111  D(28,24,33,32)        178.004          estimate D2E/DX2                !
 ! D112  D(28,24,33,59)         -1.8664         estimate D2E/DX2                !
 ! D113  D(29,24,33,32)         -0.0708         estimate D2E/DX2                !
 ! D114  D(29,24,33,59)       -179.9412         estimate D2E/DX2                !
 ! D115  D(34,26,28,18)        153.7134         estimate D2E/DX2                !
 ! D116  D(34,26,28,24)         39.5623         estimate D2E/DX2                !
 ! D117  D(34,26,28,27)        -75.7196         estimate D2E/DX2                !
 ! D118  D(38,26,28,18)        -30.5798         estimate D2E/DX2                !
 ! D119  D(38,26,28,24)       -144.7309         estimate D2E/DX2                !
 ! D120  D(38,26,28,27)         99.9872         estimate D2E/DX2                !
 ! D121  D(28,26,34,35)        176.2821         estimate D2E/DX2                !
 ! D122  D(28,26,34,60)         -3.6783         estimate D2E/DX2                !
 ! D123  D(38,26,34,35)          0.4129         estimate D2E/DX2                !
 ! D124  D(38,26,34,60)       -179.5475         estimate D2E/DX2                !
 ! D125  D(28,26,38,37)       -176.0714         estimate D2E/DX2                !
 ! D126  D(28,26,38,64)          4.0157         estimate D2E/DX2                !
 ! D127  D(34,26,38,37)         -0.3296         estimate D2E/DX2                !
 ! D128  D(34,26,38,64)        179.7575         estimate D2E/DX2                !
 ! D129  D(39,27,28,18)       -100.299          estimate D2E/DX2                !
 ! D130  D(39,27,28,24)         61.1767         estimate D2E/DX2                !
 ! D131  D(39,27,28,26)        163.688          estimate D2E/DX2                !
 ! D132  D(43,27,28,18)         80.9506         estimate D2E/DX2                !
 ! D133  D(43,27,28,24)       -117.5737         estimate D2E/DX2                !
 ! D134  D(43,27,28,26)        -15.0624         estimate D2E/DX2                !
 ! D135  D(28,27,39,40)       -176.6779         estimate D2E/DX2                !
 ! D136  D(28,27,39,65)          3.9725         estimate D2E/DX2                !
 ! D137  D(43,27,39,40)          2.1074         estimate D2E/DX2                !
 ! D138  D(43,27,39,65)       -177.2423         estimate D2E/DX2                !
 ! D139  D(28,27,43,42)        178.4757         estimate D2E/DX2                !
 ! D140  D(28,27,43,69)         -1.9931         estimate D2E/DX2                !
 ! D141  D(39,27,43,42)         -0.2844         estimate D2E/DX2                !
 ! D142  D(39,27,43,69)        179.2468         estimate D2E/DX2                !
 ! D143  D(24,29,30,31)          0.4004         estimate D2E/DX2                !
 ! D144  D(24,29,30,56)       -179.7426         estimate D2E/DX2                !
 ! D145  D(55,29,30,31)       -179.6867         estimate D2E/DX2                !
 ! D146  D(55,29,30,56)          0.1703         estimate D2E/DX2                !
 ! D147  D(29,30,31,32)         -0.5086         estimate D2E/DX2                !
 ! D148  D(29,30,31,57)        179.8325         estimate D2E/DX2                !
 ! D149  D(56,30,31,32)        179.6351         estimate D2E/DX2                !
 ! D150  D(56,30,31,57)         -0.0238         estimate D2E/DX2                !
 ! D151  D(30,31,32,33)          0.3267         estimate D2E/DX2                !
 ! D152  D(30,31,32,58)       -179.5228         estimate D2E/DX2                !
 ! D153  D(57,31,32,33)        179.986          estimate D2E/DX2                !
 ! D154  D(57,31,32,58)          0.1365         estimate D2E/DX2                !
 ! D155  D(31,32,33,24)         -0.0378         estimate D2E/DX2                !
 ! D156  D(31,32,33,59)        179.8332         estimate D2E/DX2                !
 ! D157  D(58,32,33,24)        179.8125         estimate D2E/DX2                !
 ! D158  D(58,32,33,59)         -0.3164         estimate D2E/DX2                !
 ! D159  D(26,34,35,36)         -0.2344         estimate D2E/DX2                !
 ! D160  D(26,34,35,61)        179.7224         estimate D2E/DX2                !
 ! D161  D(60,34,35,36)        179.7263         estimate D2E/DX2                !
 ! D162  D(60,34,35,61)         -0.3168         estimate D2E/DX2                !
 ! D163  D(34,35,36,37)         -0.0354         estimate D2E/DX2                !
 ! D164  D(34,35,36,62)        179.9319         estimate D2E/DX2                !
 ! D165  D(61,35,36,37)       -179.9921         estimate D2E/DX2                !
 ! D166  D(61,35,36,62)         -0.0247         estimate D2E/DX2                !
 ! D167  D(35,36,37,38)          0.1172         estimate D2E/DX2                !
 ! D168  D(35,36,37,63)        179.9983         estimate D2E/DX2                !
 ! D169  D(62,36,37,38)       -179.8501         estimate D2E/DX2                !
 ! D170  D(62,36,37,63)          0.031          estimate D2E/DX2                !
 ! D171  D(36,37,38,26)          0.0689         estimate D2E/DX2                !
 ! D172  D(36,37,38,64)        179.9822         estimate D2E/DX2                !
 ! D173  D(63,37,38,26)       -179.8128         estimate D2E/DX2                !
 ! D174  D(63,37,38,64)          0.1005         estimate D2E/DX2                !
 ! D175  D(27,39,40,41)         -2.3013         estimate D2E/DX2                !
 ! D176  D(27,39,40,66)        178.8309         estimate D2E/DX2                !
 ! D177  D(65,39,40,41)        177.0515         estimate D2E/DX2                !
 ! D178  D(65,39,40,66)         -1.8163         estimate D2E/DX2                !
 ! D179  D(39,40,41,42)          0.6431         estimate D2E/DX2                !
 ! D180  D(39,40,41,67)       -178.8673         estimate D2E/DX2                !
 ! D181  D(66,40,41,42)        179.5039         estimate D2E/DX2                !
 ! D182  D(66,40,41,67)         -0.0065         estimate D2E/DX2                !
 ! D183  D(40,41,42,43)          1.1762         estimate D2E/DX2                !
 ! D184  D(40,41,42,68)       -179.2024         estimate D2E/DX2                !
 ! D185  D(67,41,42,43)       -179.3137         estimate D2E/DX2                !
 ! D186  D(67,41,42,68)          0.3077         estimate D2E/DX2                !
 ! D187  D(41,42,43,27)         -1.3512         estimate D2E/DX2                !
 ! D188  D(41,42,43,69)        179.11           estimate D2E/DX2                !
 ! D189  D(68,42,43,27)        179.0245         estimate D2E/DX2                !
 ! D190  D(68,42,43,69)         -0.5144         estimate D2E/DX2                !
 --------------------------------------------------------------------------------
 Stoichiometry    C33H26N3O5PS
 Framework group  C1[X(C33H26N3O5PS)]
 Deg. of freedom   201
 Full point group                 C1      NOp   1
 Largest Abelian subgroup         C1      NOp   1
 Largest concise Abelian subgroup C1      NOp   1
                         Standard orientation:                         
 ---------------------------------------------------------------------
 Center     Atomic      Atomic             Coordinates (Angstroms)
 Number     Number       Type             X           Y           Z
 ---------------------------------------------------------------------
      1          6           0       -3.692307    1.797585   -1.085102
      2          6           0       -4.689646    2.738871   -0.868290
      3          6           0       -5.788371    2.414463   -0.074017
      4          6           0       -5.889561    1.149706    0.489781
      5          6           0       -4.878935    0.225020    0.263034
      6          6           0       -3.759920    0.526974   -0.509877
      7          6           0       -2.647955   -0.478075   -0.769386
      8          8           0       -4.253264   -3.302452    1.267903
      9          8           0       -4.818029   -2.535031   -1.054633
     10         16           0       -4.259659   -2.276012    0.257473
     11          7           0       -2.755176   -1.597698    0.182521
     12          8           0       -5.041122   -1.011725    0.896831
     13          6           0       -0.994813    3.451102    0.830605
     14          6           0       -1.022113    4.834021    1.003220
     15          6           0        0.160813    5.565568    0.984323
     16          6           0        1.377295    4.910570    0.791427
     17          6           0        1.406844    3.532041    0.621266
     18          8           0        1.293868    0.708129    1.166001
     19          6           0        0.219746    2.796252    0.642677
     20          6           0        0.283136    1.306063    0.392920
     21          8           0       -0.997547    0.709382    0.599641
     22          6           0       -1.299139    0.136819   -0.596190
     23          7           0       -0.395533    0.195450   -1.496304
     24          6           0        1.290995   -1.825837   -0.347327
     25          7           0        0.694926    0.863910   -0.922248
     26          6           0        3.289303   -0.804478    1.307370
     27          6           0        3.320811    0.270411   -1.279459
     28         15           0        2.090923   -0.223648   -0.004008
     29          6           0        1.334099   -2.451139   -1.593460
     30          6           0        0.664957   -3.655479   -1.791806
     31          6           0       -0.056286   -4.236711   -0.751670
     32          6           0       -0.099445   -3.615215    0.495974
     33          6           0        0.572514   -2.411622    0.698313
     34          6           0        3.926821   -2.041169    1.152411
     35          6           0        4.881901   -2.473800    2.066584
     36          6           0        5.220784   -1.671292    3.153568
     37          6           0        4.599195   -0.436979    3.317234
     38          6           0        3.641507   -0.006327    2.401200
     39          6           0        2.904839    0.462972   -2.605480
     40          6           0        3.827886    0.768875   -3.597319
     41          6           0        5.173608    0.934825   -3.274365
     42          6           0        5.591729    0.779900   -1.957374
     43          6           0        4.675051    0.436017   -0.966777
     44          1           0       -2.832109    2.050232   -1.699316
     45          1           0       -4.608619    3.722985   -1.317070
     46          1           0       -6.571892    3.143613    0.102968
     47          1           0       -6.736529    0.864691    1.103886
     48          1           0       -2.701504   -0.829349   -1.807641
     49          1           0       -2.039783   -2.313619    0.046877
     50          1           0       -1.918395    2.883077    0.845864
     51          1           0       -1.973083    5.336481    1.152329
     52          1           0        0.138402    6.642889    1.117958
     53          1           0        2.304118    5.475817    0.774089
     54          1           0        2.355544    3.025852    0.466564
     55          1           0        1.888337   -2.005758   -2.412983
     56          1           0        0.706222   -4.138565   -2.762688
     57          1           0       -0.579589   -5.174489   -0.909238
     58          1           0       -0.653426   -4.066547    1.313847
     59          1           0        0.533672   -1.929976    1.671172
     60          1           0        3.678883   -2.679004    0.308361
     61          1           0        5.360738   -3.438685    1.929550
     62          1           0        5.965242   -2.007387    3.869089
     63          1           0        4.856868    0.195506    4.161553
     64          1           0        3.165479    0.957524    2.541836
     65          1           0        1.854716    0.383662   -2.860328
     66          1           0        3.492098    0.895979   -4.621635
     67          1           0        5.891193    1.192007   -4.047518
     68          1           0        6.635444    0.919894   -1.694419
     69          1           0        5.025826    0.306434    0.049677
 ---------------------------------------------------------------------
 Rotational constants (GHZ):           0.1113214           0.0612676           0.0494375
 Electric field and nuclear coordinate derivatives read from checkpoint file.
 Rotating derivatives to standard orientation.
 Full mass-weighted force constant matrix:
 Low frequencies ---   -5.9709   -0.0079    0.0130    0.0174    2.8061    5.2465
 Low frequencies ---   12.5141   14.8622   23.1955
 Diagonal vibrational polarizability:
      199.9553304     132.1791681     217.9435664
 Harmonic frequencies (cm**-1), IR intensities (KM/Mole), Raman scattering
 activities (A**4/AMU), depolarization ratios for plane and unpolarized
 incident light, reduced masses (AMU), force constants (mDyne/A),
 and normal coordinates:
                      1                      2                      3
                      A                      A                      A
 Frequencies --     12.2777                14.7076                23.1238
 Red. masses --      6.0658                 6.1431                 5.9029
 Frc consts  --      0.0005                 0.0008                 0.0019
 IR Inten    --      0.1385                 1.1945                 0.2880
  Atom  AN      X      Y      Z        X      Y      Z        X      Y      Z
     1   6     0.05   0.00  -0.06     0.01  -0.07  -0.15     0.07   0.00  -0.02
     2   6     0.05   0.01  -0.10     0.00  -0.05  -0.22     0.12   0.05  -0.00
     3   6     0.02   0.02  -0.12     0.00   0.00  -0.20     0.12   0.11   0.02
     4   6     0.00   0.03  -0.11     0.00   0.05  -0.11     0.07   0.12   0.03
     5   6     0.00   0.02  -0.08     0.00   0.03  -0.03     0.02   0.07   0.01
     6   6     0.03   0.01  -0.05     0.01  -0.02  -0.05     0.02   0.01  -0.01
     7   6     0.03  -0.00  -0.01     0.01  -0.04   0.03    -0.02  -0.04  -0.01
     8   8    -0.05   0.03  -0.03    -0.01   0.09   0.19    -0.13   0.04   0.01
     9   8     0.02   0.01  -0.05    -0.02  -0.05   0.15    -0.13   0.07   0.02
    10  16    -0.01   0.02  -0.04    -0.01   0.03   0.13    -0.10   0.04   0.01
    11   7    -0.01   0.01  -0.00    -0.00   0.01   0.08    -0.06  -0.03  -0.01
    12   8    -0.02   0.03  -0.07     0.01   0.08   0.05    -0.02   0.08   0.02
    13   6    -0.05  -0.05   0.09    -0.02  -0.01  -0.10    -0.04  -0.09   0.10
    14   6    -0.08  -0.06   0.13    -0.03  -0.01  -0.10    -0.06  -0.09   0.10
    15   6    -0.10  -0.03   0.17    -0.03  -0.02   0.03    -0.08  -0.06  -0.01
    16   6    -0.08   0.00   0.18    -0.01  -0.02   0.14    -0.08  -0.03  -0.12
    17   6    -0.05   0.01   0.14    -0.00  -0.02   0.14    -0.06  -0.03  -0.12
    18   8     0.02  -0.01   0.04     0.01  -0.02   0.00    -0.00  -0.04  -0.00
    19   6    -0.03  -0.02   0.09    -0.01  -0.02   0.02    -0.04  -0.06  -0.01
    20   6     0.01  -0.01   0.06     0.00  -0.02   0.01    -0.02  -0.06  -0.01
    21   8     0.02  -0.04   0.04     0.01  -0.02   0.02    -0.00  -0.08   0.00
    22   6     0.02  -0.00   0.02     0.01  -0.03   0.02    -0.00  -0.07  -0.00
    23   7     0.02   0.04   0.02    -0.00  -0.01   0.01    -0.00  -0.07  -0.00
    24   6    -0.00   0.01   0.04     0.01  -0.00  -0.03     0.05  -0.04  -0.01
    25   7     0.02   0.03   0.05    -0.00  -0.00   0.00    -0.01  -0.06  -0.00
    26   6     0.05   0.03  -0.01     0.01  -0.03  -0.02     0.03   0.00   0.00
    27   6    -0.01  -0.03  -0.04     0.00   0.03   0.00     0.00   0.01   0.01
    28  15     0.01   0.01   0.01     0.01  -0.00  -0.01     0.01  -0.03   0.00
    29   6    -0.02  -0.01   0.06    -0.02   0.03  -0.04     0.14  -0.08   0.01
    30   6    -0.02  -0.01   0.08    -0.02   0.04  -0.06     0.16  -0.09   0.01
    31   6    -0.01   0.01   0.10    -0.01   0.01  -0.06     0.09  -0.06  -0.02
    32   6     0.00   0.03   0.09     0.02  -0.02  -0.05     0.00  -0.02  -0.05
    33   6     0.00   0.03   0.06     0.03  -0.02  -0.03    -0.02  -0.01  -0.04
    34   6     0.02   0.01   0.01     0.04  -0.01  -0.07     0.05   0.02   0.00
    35   6     0.05   0.03  -0.01     0.04  -0.03  -0.09     0.07   0.04   0.00
    36   6     0.10   0.07  -0.05     0.01  -0.08  -0.04     0.05   0.05  -0.00
    37   6     0.13   0.09  -0.08    -0.02  -0.10   0.01     0.02   0.04  -0.00
    38   6     0.10   0.07  -0.06    -0.02  -0.08   0.02     0.01   0.01  -0.00
    39   6    -0.06  -0.03  -0.02     0.01   0.04   0.00     0.01  -0.02   0.00
    40   6    -0.09  -0.07  -0.06     0.01   0.07   0.02     0.00   0.02   0.01
    41   6    -0.07  -0.12  -0.12     0.00   0.10   0.03    -0.01   0.10   0.03
    42   6    -0.02  -0.11  -0.13    -0.00   0.09   0.03    -0.02   0.13   0.03
    43   6     0.00  -0.07  -0.09    -0.00   0.06   0.02    -0.01   0.09   0.02
    44   1     0.07  -0.01  -0.04     0.01  -0.11  -0.16     0.07  -0.04  -0.03
    45   1     0.07   0.00  -0.10     0.00  -0.09  -0.29     0.16   0.05  -0.01
    46   1     0.02   0.03  -0.15    -0.00   0.02  -0.26     0.16   0.15   0.03
    47   1    -0.02   0.04  -0.14    -0.00   0.09  -0.09     0.07   0.16   0.05
    48   1     0.05  -0.01  -0.01     0.03  -0.09   0.04    -0.03  -0.03  -0.01
    49   1    -0.01   0.00   0.03    -0.01  -0.00   0.12    -0.10  -0.07  -0.02
    50   1    -0.03  -0.07   0.05    -0.03  -0.01  -0.19    -0.02  -0.11   0.18
    51   1    -0.10  -0.08   0.12    -0.05  -0.01  -0.19    -0.06  -0.11   0.18
    52   1    -0.13  -0.03   0.20    -0.04  -0.02   0.03    -0.09  -0.06  -0.02
    53   1    -0.09   0.03   0.21    -0.01  -0.03   0.24    -0.10  -0.00  -0.21
    54   1    -0.03   0.04   0.14     0.01  -0.03   0.24    -0.06  -0.00  -0.21
    55   1    -0.02  -0.03   0.04    -0.03   0.05  -0.04     0.19  -0.10   0.04
    56   1    -0.03  -0.03   0.09    -0.05   0.06  -0.07     0.23  -0.12   0.03
    57   1    -0.02   0.00   0.12    -0.02   0.02  -0.07     0.11  -0.07  -0.03
    58   1     0.01   0.05   0.10     0.04  -0.04  -0.04    -0.05  -0.00  -0.07
    59   1     0.01   0.05   0.05     0.05  -0.05  -0.02    -0.09   0.02  -0.06
    60   1    -0.02  -0.01   0.04     0.06   0.03  -0.11     0.06   0.01   0.00
    61   1     0.02   0.02   0.01     0.06  -0.02  -0.13     0.09   0.05   0.00
    62   1     0.12   0.08  -0.07     0.01  -0.10  -0.05     0.06   0.07  -0.01
    63   1     0.17   0.11  -0.11    -0.04  -0.14   0.05     0.01   0.04  -0.01
    64   1     0.12   0.08  -0.08    -0.04  -0.09   0.07    -0.01   0.00  -0.00
    65   1    -0.07  -0.01   0.02     0.01   0.02  -0.00     0.02  -0.08  -0.01
    66   1    -0.12  -0.08  -0.05     0.02   0.08   0.02     0.01  -0.00   0.01
    67   1    -0.09  -0.15  -0.15     0.01   0.13   0.04    -0.02   0.14   0.03
    68   1    -0.01  -0.15  -0.17    -0.01   0.11   0.04    -0.03   0.19   0.04
    69   1     0.04  -0.07  -0.10    -0.01   0.05   0.02    -0.02   0.11   0.03
                      4                      5                      6
                      A                      A                      A
 Frequencies --     29.3539                32.2921                36.4637
 Red. masses --      5.0638                 4.6634                 5.1080
 Frc consts  --      0.0026                 0.0029                 0.0040
 IR Inten    --      0.3177                 0.1438                 0.5447
  Atom  AN      X      Y      Z        X      Y      Z        X      Y      Z
     1   6    -0.02   0.02   0.03    -0.05  -0.01  -0.04    -0.01  -0.01   0.02
     2   6    -0.04   0.01   0.01    -0.04  -0.00   0.01    -0.04  -0.02  -0.03
     3   6    -0.06  -0.02  -0.03     0.01   0.01   0.08    -0.08  -0.03  -0.09
     4   6    -0.07  -0.03  -0.06     0.05   0.02   0.11    -0.09  -0.03  -0.10
     5   6    -0.05  -0.01  -0.04     0.03   0.01   0.06    -0.07  -0.02  -0.04
     6   6    -0.03   0.01   0.01    -0.02   0.00  -0.01    -0.03  -0.01   0.02
     7   6    -0.02   0.02   0.02    -0.02   0.01  -0.06    -0.03  -0.01   0.06
     8   8    -0.05  -0.02  -0.06     0.05  -0.00  -0.01    -0.07   0.01   0.05
     9   8     0.03  -0.00  -0.07    -0.09   0.05   0.04     0.03  -0.05   0.01
    10  16    -0.03  -0.01  -0.05     0.00   0.01   0.00    -0.04  -0.01   0.03
    11   7    -0.03   0.01   0.02     0.01  -0.01  -0.08    -0.04   0.01   0.08
    12   8    -0.07  -0.03  -0.06     0.07   0.02   0.08    -0.09  -0.01  -0.03
    13   6     0.07   0.05  -0.04    -0.01   0.03  -0.13     0.07   0.03   0.06
    14   6     0.12   0.05  -0.05     0.01   0.03  -0.10     0.13   0.03   0.06
    15   6     0.15   0.01  -0.00     0.04  -0.01   0.07     0.15  -0.01   0.02
    16   6     0.13  -0.05   0.05     0.04  -0.04   0.21     0.12  -0.05  -0.03
    17   6     0.08  -0.05   0.06     0.02  -0.04   0.17     0.07  -0.05  -0.03
    18   8    -0.01  -0.03   0.01    -0.05  -0.03  -0.01    -0.02  -0.04   0.02
    19   6     0.05   0.00   0.01    -0.00  -0.00   0.01     0.04  -0.01   0.01
    20   6    -0.00  -0.00   0.01    -0.02   0.00  -0.02    -0.01  -0.01   0.02
    21   8    -0.02   0.04   0.01    -0.04   0.02  -0.05    -0.02   0.02   0.03
    22   6    -0.02   0.01   0.02    -0.02   0.01  -0.05    -0.03  -0.01   0.04
    23   7    -0.01  -0.02   0.03    -0.00   0.01  -0.03    -0.03  -0.04   0.04
    24   6    -0.01  -0.02   0.04     0.01  -0.01  -0.03     0.02  -0.02  -0.03
    25   7    -0.01  -0.02   0.01    -0.01   0.01  -0.02    -0.02  -0.03   0.02
    26   6     0.02  -0.00  -0.01    -0.02   0.02   0.00    -0.00   0.01   0.02
    27   6    -0.03   0.00  -0.00    -0.01  -0.01  -0.01    -0.01   0.01   0.01
    28  15    -0.01  -0.01   0.01    -0.02   0.00  -0.01    -0.00  -0.01   0.01
    29   6     0.03  -0.08   0.07     0.12  -0.06   0.00     0.06   0.01  -0.04
    30   6     0.04  -0.09   0.11     0.17  -0.08  -0.00     0.07   0.02  -0.09
    31   6     0.02  -0.05   0.12     0.11  -0.06  -0.04     0.03  -0.00  -0.13
    32   6    -0.02   0.01   0.09    -0.01  -0.01  -0.06    -0.00  -0.03  -0.11
    33   6    -0.03   0.02   0.05    -0.06   0.01  -0.06    -0.01  -0.04  -0.07
    34   6     0.09   0.04  -0.08    -0.03   0.02   0.04    -0.06  -0.03   0.11
    35   6     0.12   0.05  -0.11    -0.04   0.04   0.06    -0.04   0.02   0.11
    36   6     0.08   0.01  -0.07    -0.03   0.07   0.04     0.04   0.11   0.02
    37   6     0.00  -0.04   0.00    -0.03   0.08  -0.01     0.09   0.15  -0.07
    38   6    -0.03  -0.04   0.03    -0.02   0.05  -0.02     0.07   0.10  -0.07
    39   6    -0.03  -0.08  -0.01    -0.01  -0.03  -0.02    -0.02   0.08   0.03
    40   6    -0.05  -0.04  -0.01    -0.01  -0.05  -0.02    -0.03   0.09   0.02
    41   6    -0.06   0.09   0.00    -0.01  -0.06  -0.02    -0.02   0.03   0.00
    42   6    -0.07   0.18   0.01    -0.01  -0.04  -0.02     0.00  -0.05  -0.01
    43   6    -0.05   0.13   0.01    -0.01  -0.02  -0.01     0.01  -0.06  -0.01
    44   1    -0.00   0.04   0.06    -0.09  -0.02  -0.10     0.01   0.00   0.07
    45   1    -0.03   0.02   0.03    -0.07  -0.01  -0.01    -0.02  -0.02  -0.03
    46   1    -0.08  -0.03  -0.05     0.02   0.01   0.12    -0.10  -0.04  -0.14
    47   1    -0.09  -0.05  -0.09     0.08   0.03   0.16    -0.12  -0.03  -0.14
    48   1    -0.01   0.02   0.02    -0.03   0.04  -0.06    -0.02  -0.04   0.06
    49   1    -0.02   0.02   0.03    -0.01  -0.02  -0.13    -0.03   0.01   0.10
    50   1     0.04   0.09  -0.08    -0.03   0.06  -0.25     0.05   0.06   0.08
    51   1     0.14   0.09  -0.09     0.01   0.05  -0.20     0.15   0.06   0.10
    52   1     0.19   0.01  -0.00     0.05  -0.01   0.10     0.19  -0.01   0.02
    53   1     0.16  -0.09   0.09     0.06  -0.07   0.34     0.14  -0.08  -0.07
    54   1     0.07  -0.09   0.10     0.03  -0.06   0.28     0.04  -0.08  -0.07
    55   1     0.05  -0.12   0.07     0.17  -0.07   0.03     0.09   0.03  -0.02
    56   1     0.07  -0.14   0.14     0.26  -0.12   0.02     0.09   0.04  -0.10
    57   1     0.03  -0.06   0.15     0.15  -0.08  -0.04     0.03   0.00  -0.17
    58   1    -0.04   0.05   0.09    -0.06   0.00  -0.09    -0.03  -0.05  -0.14
    59   1    -0.06   0.07   0.03    -0.14   0.05  -0.08    -0.04  -0.06  -0.06
    60   1     0.12   0.07  -0.12    -0.03  -0.01   0.06    -0.12  -0.10   0.17
    61   1     0.17   0.08  -0.17    -0.04   0.03   0.09    -0.09  -0.02   0.18
    62   1     0.10   0.01  -0.09    -0.04   0.09   0.05     0.05   0.14   0.02
    63   1    -0.03  -0.07   0.04    -0.03   0.10  -0.02     0.16   0.22  -0.14
    64   1    -0.08  -0.08   0.09    -0.02   0.06  -0.05     0.12   0.13  -0.14
    65   1    -0.02  -0.18  -0.02    -0.01  -0.03  -0.02    -0.03   0.13   0.04
    66   1    -0.04  -0.11  -0.02    -0.01  -0.07  -0.02    -0.04   0.15   0.04
    67   1    -0.08   0.12  -0.00    -0.00  -0.08  -0.03    -0.02   0.03   0.00
    68   1    -0.08   0.28   0.02    -0.01  -0.04  -0.02     0.01  -0.11  -0.02
    69   1    -0.05   0.20   0.02    -0.01  -0.00  -0.01     0.02  -0.11  -0.02
                      7                      8                      9
                      A                      A                      A
 Frequencies --     44.4221                49.7120                57.7860
 Red. masses --      5.0870                 5.0982                 4.5028
 Frc consts  --      0.0059                 0.0074                 0.0089
 IR Inten    --      0.1472                 0.0727                 0.3663
  Atom  AN      X      Y      Z        X      Y      Z        X      Y      Z
     1   6    -0.02   0.00  -0.04     0.00   0.03   0.07    -0.03   0.00  -0.04
     2   6    -0.04  -0.01  -0.06    -0.02   0.02   0.03    -0.04  -0.01  -0.04
     3   6    -0.05  -0.03  -0.07    -0.05  -0.01  -0.02    -0.01  -0.02  -0.01
     4   6    -0.03  -0.02  -0.05    -0.06  -0.02  -0.04     0.02  -0.01   0.01
     5   6    -0.01  -0.00  -0.03    -0.04   0.00  -0.00     0.02   0.00   0.00
     6   6    -0.01   0.01  -0.03    -0.00   0.02   0.05     0.00   0.01  -0.03
     7   6     0.00   0.02  -0.02     0.01   0.03   0.07     0.01   0.02  -0.04
     8   8     0.09   0.05   0.09    -0.04  -0.00  -0.01     0.08   0.01  -0.00
     9   8     0.05  -0.07   0.06     0.06   0.02  -0.03    -0.01   0.00   0.02
    10  16     0.05   0.00   0.05    -0.01   0.01  -0.00     0.04   0.01  -0.00
    11   7     0.03   0.04   0.01    -0.01   0.03   0.07     0.03   0.01  -0.05
    12   8     0.02   0.01  -0.00    -0.05  -0.01  -0.03     0.06   0.01   0.02
    13   6     0.03   0.01   0.17    -0.03   0.01  -0.04    -0.00  -0.01   0.00
    14   6     0.05   0.00   0.26    -0.07   0.02  -0.12    -0.01  -0.01   0.00
    15   6     0.04   0.01   0.17    -0.09   0.05  -0.13    -0.02  -0.00  -0.00
    16   6     0.02   0.02  -0.02    -0.07   0.07  -0.06    -0.01   0.01  -0.01
    17   6     0.00   0.03  -0.11    -0.03   0.06   0.03    -0.00   0.01  -0.01
    18   8    -0.01   0.02  -0.04     0.04   0.04   0.04     0.01  -0.00  -0.01
    19   6     0.01   0.03  -0.01    -0.01   0.03   0.03     0.00  -0.00  -0.01
    20   6    -0.01   0.03  -0.04     0.02   0.03   0.06     0.01   0.00  -0.01
    21   8    -0.01   0.04  -0.05     0.03   0.01   0.08     0.01  -0.00  -0.02
    22   6    -0.00   0.03  -0.04     0.01   0.03   0.08     0.01   0.02  -0.03
    23   7    -0.00   0.03  -0.04    -0.01   0.04   0.06     0.01   0.03  -0.03
    24   6    -0.01   0.02  -0.02     0.02   0.03  -0.00    -0.05  -0.01   0.02
    25   7    -0.00   0.04  -0.04     0.00   0.03   0.05     0.02   0.01  -0.01
    26   6    -0.03   0.01  -0.02     0.02  -0.02  -0.01    -0.02  -0.05  -0.02
    27   6    -0.01  -0.00  -0.03    -0.00   0.02  -0.00    -0.00  -0.02   0.00
    28  15    -0.01   0.02  -0.03     0.01   0.03   0.02    -0.01  -0.02  -0.01
    29   6     0.07  -0.04   0.01     0.15  -0.02   0.03    -0.02  -0.06   0.05
    30   6     0.11  -0.07   0.04     0.22  -0.06   0.03    -0.01  -0.08   0.09
    31   6     0.08  -0.04   0.03     0.16  -0.04  -0.01    -0.02  -0.04   0.10
    32   6     0.00   0.02  -0.00     0.02   0.02  -0.04    -0.05   0.02   0.07
    33   6    -0.04   0.05  -0.03    -0.05   0.05  -0.04    -0.07   0.03   0.03
    34   6    -0.02   0.01  -0.04    -0.04  -0.05  -0.03    -0.15  -0.12   0.06
    35   6    -0.07  -0.02  -0.00    -0.07  -0.12  -0.03    -0.14  -0.13   0.04
    36   6    -0.12  -0.06   0.04    -0.04  -0.16  -0.01     0.01  -0.06  -0.06
    37   6    -0.13  -0.06   0.05     0.02  -0.13   0.01     0.15   0.02  -0.14
    38   6    -0.08  -0.03   0.02     0.05  -0.06   0.01     0.13   0.02  -0.11
    39   6    -0.00  -0.05  -0.05    -0.03   0.05   0.01     0.01   0.00   0.00
    40   6     0.01  -0.08  -0.05    -0.05   0.02  -0.01     0.01   0.09   0.03
    41   6     0.00  -0.05  -0.04    -0.03  -0.04  -0.05    -0.00   0.17   0.07
    42   6    -0.01   0.01  -0.02     0.00  -0.07  -0.06    -0.02   0.13   0.06
    43   6    -0.02   0.03  -0.02     0.01  -0.04  -0.04    -0.02   0.03   0.03
    44   1    -0.02   0.02  -0.03     0.03   0.05   0.10    -0.04   0.01  -0.07
    45   1    -0.06  -0.01  -0.06    -0.01   0.02   0.04    -0.06  -0.02  -0.05
    46   1    -0.06  -0.04  -0.09    -0.07  -0.02  -0.05    -0.02  -0.03  -0.00
    47   1    -0.03  -0.03  -0.05    -0.09  -0.03  -0.09     0.03  -0.01   0.03
    48   1    -0.01  -0.01  -0.01     0.02   0.03   0.07     0.01   0.03  -0.05
    49   1     0.05   0.05   0.02    -0.00   0.03   0.07     0.03   0.02  -0.07
    50   1     0.03   0.01   0.24    -0.02  -0.01  -0.03     0.00  -0.02   0.00
    51   1     0.06  -0.01   0.41    -0.09   0.01  -0.18    -0.01  -0.02   0.01
    52   1     0.06  -0.00   0.24    -0.12   0.06  -0.20    -0.02  -0.00  -0.00
    53   1     0.02   0.02  -0.10    -0.08   0.09  -0.06    -0.02   0.01  -0.02
    54   1    -0.02   0.04  -0.25    -0.01   0.07   0.08    -0.00   0.01  -0.02
    55   1     0.10  -0.07   0.02     0.21  -0.04   0.06    -0.01  -0.09   0.04
    56   1     0.17  -0.12   0.06     0.33  -0.10   0.05     0.01  -0.12   0.11
    57   1     0.12  -0.07   0.05     0.21  -0.07  -0.01    -0.01  -0.05   0.13
    58   1    -0.02   0.04  -0.01    -0.03   0.03  -0.07    -0.07   0.05   0.08
    59   1    -0.10   0.09  -0.05    -0.15   0.09  -0.06    -0.09   0.07   0.01
    60   1     0.02   0.04  -0.07    -0.07  -0.02  -0.04    -0.27  -0.18   0.13
    61   1    -0.06  -0.02  -0.01    -0.12  -0.14  -0.05    -0.25  -0.20   0.10
    62   1    -0.16  -0.09   0.07    -0.06  -0.21  -0.01     0.03  -0.07  -0.07
    63   1    -0.17  -0.09   0.09     0.05  -0.16   0.02     0.27   0.07  -0.21
    64   1    -0.08  -0.03   0.03     0.10  -0.04   0.03     0.23   0.08  -0.17
    65   1     0.00  -0.08  -0.06    -0.04   0.09   0.04     0.02  -0.05  -0.02
    66   1     0.02  -0.12  -0.06    -0.07   0.05   0.00     0.02   0.11   0.03
    67   1     0.01  -0.07  -0.04    -0.04  -0.07  -0.06    -0.01   0.25   0.09
    68   1    -0.02   0.04  -0.02     0.01  -0.13  -0.09    -0.03   0.18   0.09
    69   1    -0.03   0.07  -0.01     0.03  -0.07  -0.05    -0.02   0.01   0.03
                     10                     11                     12
                      A                      A                      A
 Frequencies --     60.4641                71.3371                79.0850
 Red. masses --      5.1541                 5.4235                 5.0056
 Frc consts  --      0.0111                 0.0163                 0.0184
 IR Inten    --      0.3036                 1.3354                 0.3344
  Atom  AN      X      Y      Z        X      Y      Z        X      Y      Z
     1   6    -0.08   0.02  -0.02    -0.07  -0.04  -0.12     0.05   0.01   0.01
     2   6    -0.11  -0.01  -0.03    -0.10  -0.07  -0.15     0.09   0.05   0.06
     3   6    -0.09  -0.03  -0.02    -0.06  -0.05  -0.08     0.09   0.06   0.06
     4   6    -0.05  -0.02  -0.00     0.01  -0.02   0.02     0.03   0.04   0.01
     5   6    -0.02   0.00   0.01     0.04   0.01   0.05    -0.01   0.01  -0.04
     6   6    -0.04   0.03  -0.00    -0.00  -0.01  -0.02    -0.00  -0.01  -0.04
     7   6    -0.02   0.04  -0.02     0.01   0.01  -0.04    -0.02  -0.02  -0.03
     8   8     0.06   0.02   0.01     0.03  -0.04  -0.10    -0.02   0.04   0.06
     9   8    -0.03   0.01   0.03    -0.14   0.15   0.00     0.05  -0.10   0.00
    10  16     0.01   0.02   0.01    -0.01   0.03  -0.03    -0.00  -0.02   0.01
    11   7     0.00   0.03  -0.03     0.02  -0.04  -0.11    -0.01   0.01   0.02
    12   8     0.02   0.01   0.03     0.12   0.03   0.12    -0.06  -0.01  -0.08
    13   6    -0.02   0.00   0.04     0.03   0.02   0.08    -0.02   0.04  -0.03
    14   6    -0.03   0.00   0.03     0.06   0.02   0.04     0.01   0.04   0.01
    15   6    -0.04   0.02  -0.01     0.07   0.01  -0.05     0.02   0.02   0.04
    16   6    -0.04   0.03  -0.05     0.05  -0.02  -0.11     0.01  -0.00   0.03
    17   6    -0.03   0.03  -0.04     0.02  -0.02  -0.06    -0.02   0.00  -0.01
    18   8    -0.03   0.01   0.03    -0.02  -0.02   0.05    -0.06   0.02  -0.02
    19   6    -0.02   0.02   0.01     0.01  -0.00   0.03    -0.03   0.02  -0.03
    20   6    -0.02   0.01   0.01    -0.01  -0.01   0.05    -0.05   0.02  -0.04
    21   8    -0.02   0.02  -0.00    -0.02   0.00   0.02    -0.05   0.03  -0.05
    22   6    -0.02   0.04  -0.01     0.00   0.02   0.00    -0.03  -0.01  -0.04
    23   7    -0.01   0.03  -0.00     0.02   0.02   0.02    -0.02  -0.01  -0.03
    24   6    -0.03   0.00  -0.00     0.00  -0.00   0.04    -0.05   0.00   0.00
    25   7    -0.00   0.01   0.02     0.01   0.01   0.05    -0.03   0.01  -0.03
    26   6    -0.03  -0.03   0.02     0.01  -0.00   0.02    -0.07  -0.01  -0.01
    27   6     0.01  -0.01   0.07    -0.02   0.00   0.02    -0.02   0.01   0.01
    28  15    -0.03  -0.00   0.04    -0.01   0.00   0.04    -0.06   0.01  -0.02
    29   6     0.03   0.00  -0.00    -0.02   0.02   0.03    -0.06  -0.00   0.01
    30   6     0.04   0.00  -0.03     0.01   0.00   0.03     0.04  -0.07   0.06
    31   6    -0.01   0.00  -0.07     0.07  -0.04   0.05     0.14  -0.12   0.10
    32   6    -0.07   0.00  -0.07     0.08  -0.05   0.06     0.13  -0.09   0.09
    33   6    -0.08   0.00  -0.04     0.05  -0.04   0.05     0.04  -0.04   0.04
    34   6     0.01   0.00  -0.05     0.04   0.02  -0.02    -0.04   0.01  -0.06
    35   6     0.13   0.04  -0.15     0.05   0.01  -0.03     0.01   0.03  -0.11
    36   6     0.19   0.05  -0.17     0.02  -0.02   0.00     0.03   0.03  -0.11
    37   6     0.13   0.01  -0.09    -0.02  -0.04   0.05    -0.01  -0.00  -0.06
    38   6     0.02  -0.03   0.01    -0.02  -0.03   0.05    -0.06  -0.02  -0.01
    39   6     0.06  -0.06   0.05    -0.07   0.12   0.05     0.01   0.14   0.03
    40   6     0.10  -0.14   0.07    -0.10   0.14   0.03     0.04   0.15   0.05
    41   6     0.10  -0.15   0.10    -0.07   0.04  -0.02     0.05   0.01   0.07
    42   6     0.05  -0.08   0.13    -0.02  -0.09  -0.06     0.03  -0.14   0.06
    43   6     0.00  -0.01   0.11     0.00  -0.10  -0.04    -0.00  -0.13   0.03
    44   1    -0.09   0.04  -0.03    -0.11  -0.06  -0.17     0.05  -0.00   0.02
    45   1    -0.14  -0.01  -0.04    -0.17  -0.10  -0.23     0.14   0.06   0.10
    46   1    -0.12  -0.05  -0.03    -0.08  -0.07  -0.11     0.13   0.10   0.11
    47   1    -0.04  -0.04   0.01     0.05  -0.01   0.07     0.03   0.06   0.01
    48   1    -0.02   0.06  -0.02     0.03   0.07  -0.06    -0.02  -0.06  -0.01
    49   1     0.00   0.04  -0.06    -0.01  -0.06  -0.18     0.00   0.02   0.06
    50   1    -0.02  -0.01   0.07     0.02   0.03   0.14    -0.03   0.06  -0.05
    51   1    -0.03  -0.00   0.06     0.07   0.04   0.08     0.01   0.05   0.02
    52   1    -0.05   0.02  -0.03     0.09   0.01  -0.09     0.04   0.01   0.07
    53   1    -0.05   0.04  -0.09     0.05  -0.03  -0.19     0.02  -0.02   0.06
    54   1    -0.03   0.04  -0.06     0.00  -0.04  -0.10    -0.02  -0.01  -0.01
    55   1     0.08  -0.00   0.03    -0.07   0.06   0.01    -0.14   0.04  -0.02
    56   1     0.09   0.00  -0.03    -0.00   0.02   0.02     0.04  -0.08   0.06
    57   1    -0.00   0.00  -0.10     0.10  -0.06   0.05     0.22  -0.17   0.14
    58   1    -0.11   0.00  -0.10     0.11  -0.08   0.06     0.20  -0.13   0.12
    59   1    -0.12   0.00  -0.04     0.06  -0.05   0.06     0.06  -0.03   0.04
    60   1    -0.02   0.01  -0.04     0.06   0.05  -0.05    -0.05   0.02  -0.06
    61   1     0.17   0.07  -0.21     0.08   0.03  -0.07     0.05   0.05  -0.15
    62   1     0.29   0.09  -0.26     0.02  -0.03  -0.01     0.08   0.04  -0.15
    63   1     0.17   0.01  -0.10    -0.04  -0.07   0.07     0.00  -0.01  -0.06
    64   1    -0.02  -0.06   0.06    -0.05  -0.05   0.09    -0.09  -0.03   0.02
    65   1     0.07  -0.06   0.02    -0.08   0.19   0.09     0.00   0.23   0.02
    66   1     0.14  -0.19   0.05    -0.14   0.24   0.05     0.05   0.27   0.06
    67   1     0.13  -0.21   0.11    -0.09   0.05  -0.04     0.07   0.02   0.09
    68   1     0.04  -0.08   0.16     0.00  -0.18  -0.09     0.04  -0.25   0.07
    69   1    -0.03   0.04   0.13     0.04  -0.19  -0.06    -0.01  -0.23   0.01
                     13                     14                     15
                      A                      A                      A
 Frequencies --     81.7507                89.0993                93.5516
 Red. masses --      6.9735                 4.5024                 5.7317
 Frc consts  --      0.0275                 0.0211                 0.0296
 IR Inten    --      1.8528                 0.9415                 1.7516
  Atom  AN      X      Y      Z        X      Y      Z        X      Y      Z
     1   6     0.06   0.03  -0.04    -0.04   0.04   0.04     0.07  -0.13  -0.07
     2   6     0.10   0.06   0.03    -0.06   0.02   0.04     0.12  -0.09  -0.05
     3   6     0.12   0.06   0.05    -0.07  -0.01   0.01     0.14  -0.02   0.01
     4   6     0.09   0.04   0.00    -0.05  -0.02  -0.01     0.10  -0.00   0.04
     5   6     0.05   0.01  -0.07    -0.03   0.00  -0.00     0.05  -0.06   0.01
     6   6     0.03   0.01  -0.09    -0.02   0.03   0.01     0.03  -0.11  -0.03
     7   6     0.03   0.02  -0.09    -0.02   0.03  -0.01     0.03  -0.12   0.01
     8   8     0.16   0.07   0.09     0.04   0.03   0.03    -0.08  -0.09  -0.02
     9   8     0.10  -0.16   0.03    -0.01  -0.04   0.02    -0.06  -0.03  -0.00
    10  16     0.10  -0.01  -0.00     0.00   0.01   0.01    -0.04  -0.07  -0.00
    11   7     0.06   0.04  -0.07    -0.01   0.03  -0.02    -0.02  -0.12   0.01
    12   8     0.04  -0.00  -0.10    -0.02  -0.00  -0.01     0.01  -0.05   0.02
    13   6    -0.01   0.00   0.05     0.00  -0.06  -0.03     0.01   0.08   0.01
    14   6     0.01   0.02  -0.05    -0.02  -0.06  -0.01     0.06   0.08   0.03
    15   6     0.02   0.00  -0.13    -0.03  -0.05   0.02     0.09   0.04   0.03
    16   6     0.01  -0.02  -0.09    -0.02  -0.02   0.02     0.06  -0.00  -0.01
    17   6    -0.01  -0.04   0.01     0.00  -0.02  -0.01     0.01  -0.00  -0.02
    18   8    -0.07  -0.06   0.10     0.04  -0.02  -0.04    -0.03   0.05   0.01
    19   6    -0.02  -0.02   0.08     0.01  -0.04  -0.03    -0.02   0.04  -0.01
    20   6    -0.03  -0.02   0.09     0.03  -0.03  -0.04    -0.04   0.04  -0.00
    21   8    -0.05  -0.01  -0.00     0.03  -0.03  -0.02    -0.03   0.02   0.00
    22   6     0.01   0.04  -0.04    -0.00   0.00  -0.03     0.01  -0.07   0.03
    23   7     0.05   0.06   0.01    -0.00  -0.01  -0.04     0.00  -0.05   0.03
    24   6    -0.04  -0.02   0.03     0.02  -0.02   0.01    -0.01   0.08   0.02
    25   7     0.03   0.02   0.09     0.01  -0.04  -0.04    -0.03   0.03   0.00
    26   6    -0.03  -0.02   0.05     0.04  -0.01  -0.00    -0.02   0.04  -0.00
    27   6    -0.07  -0.04   0.04     0.05  -0.03  -0.03    -0.00   0.07   0.02
    28  15    -0.05  -0.02   0.07     0.05  -0.03  -0.02    -0.01   0.07   0.01
    29   6     0.03  -0.01   0.02     0.07  -0.08   0.05     0.06   0.02   0.05
    30   6     0.01   0.01  -0.04     0.00  -0.05   0.06     0.02   0.05   0.04
    31   6    -0.07   0.01  -0.10    -0.12   0.06   0.04    -0.09   0.13   0.01
    32   6    -0.12  -0.01  -0.09    -0.17   0.13   0.00    -0.15   0.18  -0.02
    33   6    -0.11  -0.03  -0.03    -0.10   0.09  -0.01    -0.12   0.16  -0.02
    34   6     0.01   0.01   0.02     0.10   0.02  -0.01    -0.05   0.03  -0.04
    35   6     0.05   0.03  -0.00     0.09   0.05   0.00    -0.05  -0.02  -0.07
    36   6     0.04   0.03   0.00     0.02   0.03   0.04    -0.01  -0.05  -0.07
    37   6    -0.01   0.00   0.04    -0.04  -0.00   0.05     0.03  -0.04  -0.02
    38   6    -0.04  -0.02   0.06    -0.03  -0.02   0.03     0.02   0.01   0.01
    39   6    -0.13  -0.02   0.06     0.03   0.11  -0.00     0.00   0.07   0.02
    40   6    -0.18   0.01   0.02     0.03   0.19   0.01     0.02   0.01   0.01
    41   6    -0.17   0.04  -0.03     0.04   0.09   0.00     0.02  -0.06   0.00
    42   6    -0.11   0.01  -0.05     0.06  -0.09  -0.03     0.02  -0.05   0.00
    43   6    -0.06  -0.02  -0.02     0.07  -0.13  -0.04     0.00   0.01   0.01
    44   1     0.05   0.03  -0.05    -0.04   0.07   0.05     0.06  -0.18  -0.10
    45   1     0.12   0.07   0.07    -0.07   0.03   0.05     0.14  -0.10  -0.08
    46   1     0.15   0.08   0.12    -0.09  -0.03   0.01     0.18   0.02   0.03
    47   1     0.10   0.04   0.02    -0.06  -0.05  -0.02     0.11   0.05   0.08
    48   1     0.06   0.01  -0.09    -0.05   0.04  -0.02     0.07  -0.12   0.01
    49   1     0.09   0.06  -0.03    -0.00   0.04  -0.02    -0.04  -0.14   0.00
    50   1    -0.01   0.01   0.10     0.01  -0.08  -0.05    -0.01   0.11   0.01
    51   1     0.02   0.04  -0.08    -0.03  -0.08  -0.01     0.08   0.11   0.05
    52   1     0.03   0.02  -0.23    -0.05  -0.05   0.05     0.13   0.04   0.04
    53   1     0.01  -0.03  -0.15    -0.03  -0.01   0.05     0.08  -0.04  -0.01
    54   1    -0.02  -0.06   0.03     0.01  -0.00  -0.00    -0.01  -0.03  -0.04
    55   1     0.09  -0.01   0.06     0.16  -0.15   0.07     0.15  -0.03   0.07
    56   1     0.07   0.03  -0.05     0.04  -0.10   0.09     0.08   0.01   0.07
    57   1    -0.08   0.03  -0.15    -0.19   0.09   0.05    -0.13   0.15   0.00
    58   1    -0.18  -0.02  -0.13    -0.27   0.21  -0.02    -0.24   0.23  -0.04
    59   1    -0.17  -0.04  -0.02    -0.15   0.15  -0.04    -0.18   0.20  -0.04
    60   1     0.02   0.01   0.02     0.15   0.03  -0.04    -0.09   0.05  -0.05
    61   1     0.08   0.05  -0.03     0.15   0.07  -0.01    -0.08  -0.03  -0.11
    62   1     0.07   0.05  -0.02     0.02   0.05   0.05     0.00  -0.09  -0.09
    63   1    -0.01  -0.00   0.04    -0.10  -0.01   0.08     0.07  -0.07  -0.01
    64   1    -0.07  -0.04   0.08    -0.08  -0.05   0.04     0.05   0.02   0.03
    65   1    -0.13  -0.04   0.09     0.03   0.16   0.01    -0.00   0.10   0.02
    66   1    -0.23   0.03   0.04     0.01   0.31   0.04     0.02   0.01   0.01
    67   1    -0.21   0.07  -0.05     0.03   0.15   0.01     0.04  -0.11  -0.01
    68   1    -0.10   0.03  -0.09     0.08  -0.18  -0.04     0.03  -0.10  -0.00
    69   1    -0.02  -0.04  -0.03     0.09  -0.24  -0.06     0.00   0.01   0.01
                     16                     17                     18
                      A                      A                      A
 Frequencies --    116.2333               138.7474               142.1222
 Red. masses --      7.1070                 6.0639                 5.2895
 Frc consts  --      0.0566                 0.0688                 0.0629
 IR Inten    --      2.5771                 1.1668                 3.3192
  Atom  AN      X      Y      Z        X      Y      Z        X      Y      Z
     1   6     0.06  -0.07  -0.01    -0.00  -0.02  -0.02    -0.17  -0.06  -0.19
     2   6     0.05  -0.07  -0.07    -0.00  -0.02  -0.04    -0.13  -0.03  -0.10
     3   6     0.05  -0.03  -0.05     0.01  -0.00  -0.01     0.02   0.06   0.14
     4   6     0.05   0.00   0.02     0.02   0.01   0.03     0.06   0.08   0.19
     5   6     0.05  -0.01   0.06     0.01   0.00   0.02    -0.03   0.02   0.02
     6   6     0.06  -0.04   0.06     0.00  -0.01   0.01    -0.09  -0.02  -0.09
     7   6     0.06  -0.04   0.12     0.01  -0.01   0.03    -0.04   0.00  -0.01
     8   8    -0.07  -0.08  -0.10    -0.01  -0.01  -0.03    -0.05   0.02  -0.02
     9   8     0.19   0.20  -0.08     0.11   0.08  -0.03     0.21   0.03  -0.08
    10  16     0.06   0.03   0.01     0.04   0.02   0.01     0.03   0.03  -0.01
    11   7     0.08   0.02   0.19     0.03   0.04   0.08    -0.01   0.11   0.13
    12   8     0.05  -0.01   0.07     0.01   0.00   0.02    -0.09  -0.01  -0.06
    13   6     0.01   0.04  -0.04    -0.01  -0.06   0.15    -0.01  -0.03  -0.03
    14   6    -0.03   0.03   0.03     0.02  -0.03  -0.03     0.00  -0.04   0.02
    15   6    -0.05   0.06   0.07     0.02  -0.05  -0.17     0.01  -0.05   0.04
    16   6    -0.03   0.10   0.04     0.02  -0.09  -0.07     0.00  -0.05  -0.01
    17   6     0.01   0.11  -0.03    -0.00  -0.11   0.12    -0.01  -0.04  -0.05
    18   8     0.03   0.06  -0.04    -0.04  -0.13   0.05    -0.02  -0.02  -0.00
    19   6     0.03   0.07  -0.06    -0.02  -0.08   0.19    -0.01  -0.03  -0.05
    20   6     0.04   0.06  -0.04    -0.03  -0.06   0.12    -0.02  -0.03  -0.03
    21   8     0.05   0.07   0.01    -0.02  -0.08   0.07    -0.03   0.00  -0.03
    22   6     0.04   0.00   0.05    -0.01   0.01   0.03    -0.05   0.02  -0.04
    23   7     0.01  -0.02   0.02    -0.02   0.10   0.02    -0.03  -0.03  -0.02
    24   6    -0.09  -0.06  -0.01    -0.04   0.02  -0.08     0.06   0.00   0.02
    25   7     0.02   0.00  -0.03    -0.02   0.07   0.07    -0.02  -0.05  -0.02
    26   6    -0.08  -0.05   0.01    -0.02   0.01  -0.10     0.04   0.01   0.03
    27   6    -0.03  -0.12  -0.02    -0.00   0.05  -0.05     0.01   0.04   0.03
    28  15    -0.05  -0.06  -0.01    -0.03   0.02  -0.08     0.03   0.00   0.03
    29   6    -0.02  -0.07  -0.00    -0.04  -0.04  -0.05     0.05   0.01   0.02
    30   6    -0.00  -0.08  -0.03    -0.02  -0.07   0.03     0.02   0.03   0.01
    31   6    -0.05  -0.08  -0.06    -0.01  -0.02   0.07    -0.00   0.04  -0.00
[...]
 Vibration    51          0.858              1.004              0.428
                       Q            Log10(Q)             Ln(Q)
 Total Bot       0.739116-249       -249.131288       -573.645989
 Total V=0       0.193186D+31         30.285976         69.736037
 Vib (Bot)       0.438251-265       -265.358277       -611.010012
 Vib (Bot)    1  0.148940D+02          1.173011          2.700959
 Vib (Bot)    2  0.124323D+02          1.094552          2.520298
 Vib (Bot)    3  0.790428D+01          0.897862          2.067405
 Vib (Bot)    4  0.622412D+01          0.794078          1.828433
 Vib (Bot)    5  0.565652D+01          0.752550          1.732810
 Vib (Bot)    6  0.500760D+01          0.699630          1.610958
 Vib (Bot)    7  0.410718D+01          0.613544          1.412737
 Vib (Bot)    8  0.366786D+01          0.564413          1.299608
 Vib (Bot)    9  0.315197D+01          0.498583          1.148029
 Vib (Bot)   10  0.301118D+01          0.478737          1.102332
 Vib (Bot)   11  0.254768D+01          0.406145          0.935183
 Vib (Bot)   12  0.229476D+01          0.360738          0.830629
 Vib (Bot)   13  0.221875D+01          0.346109          0.796946
 Vib (Bot)   14  0.203259D+01          0.308050          0.709311
 Vib (Bot)   15  0.193390D+01          0.286435          0.659540
 Vib (Bot)   16  0.154737D+01          0.189595          0.436560
 Vib (Bot)   17  0.128713D+01          0.109621          0.252411
 Vib (Bot)   18  0.125509D+01          0.098676          0.227210
 Vib (Bot)   19  0.105529D+01          0.023370          0.053811
 Vib (Bot)   20  0.849360D+00         -0.070908         -0.163273
 Vib (Bot)   21  0.827487D+00         -0.082239         -0.189362
 Vib (Bot)   22  0.779015D+00         -0.108454         -0.249725
 Vib (Bot)   23  0.729801D+00         -0.136795         -0.314983
 Vib (Bot)   24  0.680042D+00         -0.167464         -0.385600
 Vib (Bot)   25  0.665004D+00         -0.177176         -0.407962
 Vib (Bot)   26  0.645999D+00         -0.189768         -0.436957
 Vib (Bot)   27  0.625602D+00         -0.203702         -0.469041
 Vib (Bot)   28  0.619069D+00         -0.208261         -0.479539
 Vib (Bot)   29  0.599155D+00         -0.222461         -0.512234
 Vib (Bot)   30  0.574515D+00         -0.240699         -0.554229
 Vib (Bot)   31  0.542842D+00         -0.265326         -0.610937
 Vib (Bot)   32  0.511525D+00         -0.291133         -0.670360
 Vib (Bot)   33  0.439488D+00         -0.357053         -0.822144
 Vib (Bot)   34  0.417163D+00         -0.379694         -0.874277
 Vib (Bot)   35  0.398901D+00         -0.399135         -0.919043
 Vib (Bot)   36  0.365152D+00         -0.437527         -1.007443
 Vib (Bot)   37  0.362132D+00         -0.441133         -1.015747
 Vib (Bot)   38  0.353541D+00         -0.451560         -1.039756
 Vib (Bot)   39  0.350773D+00         -0.454974         -1.047616
 Vib (Bot)   40  0.347478D+00         -0.459072         -1.057053
 Vib (Bot)   41  0.342023D+00         -0.465945         -1.072877
 Vib (Bot)   42  0.315504D+00         -0.500995         -1.153585
 Vib (Bot)   43  0.309219D+00         -0.509734         -1.173706
 Vib (Bot)   44  0.297973D+00         -0.525823         -1.210753
 Vib (Bot)   45  0.294272D+00         -0.531252         -1.223252
 Vib (Bot)   46  0.275777D+00         -0.559442         -1.288163
 Vib (Bot)   47  0.269351D+00         -0.569682         -1.311741
 Vib (Bot)   48  0.262515D+00         -0.580846         -1.337448
 Vib (Bot)   49  0.256757D+00         -0.590478         -1.359626
 Vib (Bot)   50  0.244822D+00         -0.611150         -1.407226
 Vib (Bot)   51  0.240310D+00         -0.619228         -1.425824
 Vib (V=0)       0.114548D+15         14.058987         32.372014
 Vib (V=0)    1  0.154024D+02          1.187588          2.734523
 Vib (V=0)    2  0.129424D+02          1.112013          2.560505
 Vib (V=0)    3  0.842008D+01          0.925316          2.130619
 Vib (V=0)    4  0.674418D+01          0.828929          1.908679
 Vib (V=0)    5  0.617858D+01          0.790889          1.821088
 Vib (V=0)    6  0.553250D+01          0.742922          1.710641
 Vib (V=0)    7  0.463751D+01          0.666284          1.534177
 Vib (V=0)    8  0.420178D+01          0.623434          1.435509
 Vib (V=0)    9  0.369139D+01          0.567189          1.306002
 Vib (V=0)   10  0.355241D+01          0.550523          1.267626
 Vib (V=0)   11  0.309628D+01          0.490840          1.130202
 Vib (V=0)   12  0.284860D+01          0.454632          1.046828
 Vib (V=0)   13  0.277439D+01          0.443168          1.020433
 Vib (V=0)   14  0.259318D+01          0.413833          0.952887
 Vib (V=0)   15  0.249749D+01          0.397504          0.915288
 Vib (V=0)   16  0.212615D+01          0.327594          0.754313
 Vib (V=0)   17  0.188083D+01          0.274350          0.631713
 Vib (V=0)   18  0.185102D+01          0.267411          0.615738
 Vib (V=0)   19  0.166774D+01          0.222129          0.511472
 Vib (V=0)   20  0.148560D+01          0.171903          0.395820
 Vib (V=0)   21  0.146682D+01          0.166376          0.383094
 Vib (V=0)   22  0.142567D+01          0.154019          0.354642
 Vib (V=0)   23  0.138465D+01          0.141341          0.325449
 Vib (V=0)   24  0.134407D+01          0.128423          0.295704
 Vib (V=0)   25  0.133200D+01          0.124505          0.286684
 Vib (V=0)   26  0.131689D+01          0.119551          0.275275
 Vib (V=0)   27  0.130086D+01          0.114231          0.263026
 Vib (V=0)   28  0.129577D+01          0.112527          0.259103
 Vib (V=0)   29  0.128038D+01          0.107338          0.247154
 Vib (V=0)   30  0.126162D+01          0.100929          0.232398
 Vib (V=0)   31  0.123802D+01          0.092729          0.213516
 Vib (V=0)   32  0.121530D+01          0.084684          0.194993
 Vib (V=0)   33  0.116570D+01          0.066585          0.153318
 Vib (V=0)   34  0.115117D+01          0.061140          0.140781
 Vib (V=0)   35  0.113963D+01          0.056762          0.130700
 Vib (V=0)   36  0.111914D+01          0.048885          0.112562
 Vib (V=0)   37  0.111736D+01          0.048195          0.110973
 Vib (V=0)   38  0.111237D+01          0.046247          0.106489
 Vib (V=0)   39  0.111077D+01          0.045625          0.105055
 Vib (V=0)   40  0.110889D+01          0.044887          0.103355
 Vib (V=0)   41  0.110579D+01          0.043672          0.100559
 Vib (V=0)   42  0.109122D+01          0.037913          0.087298
 Vib (V=0)   43  0.108789D+01          0.036586          0.084241
 Vib (V=0)   44  0.108205D+01          0.034249          0.078862
 Vib (V=0)   45  0.108017D+01          0.033492          0.077117
 Vib (V=0)   46  0.107101D+01          0.029794          0.068603
 Vib (V=0)   47  0.106793D+01          0.028545          0.065727
 Vib (V=0)   48  0.106472D+01          0.027237          0.062716
 Vib (V=0)   49  0.106207D+01          0.026154          0.060221
 Vib (V=0)   50  0.105672D+01          0.023960          0.055170
 Vib (V=0)   51  0.105475D+01          0.023150          0.053305
 Electronic      0.100000D+01          0.000000          0.000000
 Translational   0.430330D+09          8.633801         19.880062
 Rotational      0.391911D+08          7.593188         17.483961
 ***** Axes restored to original set *****
 -------------------------------------------------------------------
 Center     Atomic                   Forces (Hartrees/Bohr)
 Number     Number              X              Y              Z
 -------------------------------------------------------------------
      1        6          -0.000000155   -0.000000911    0.000000842
      2        6           0.000002417   -0.000000925   -0.000001096
      3        6          -0.000002011   -0.000000631    0.000002651
      4        6           0.000001190   -0.000006096   -0.000002672
      5        6           0.000005352    0.000004032    0.000011318
      6        6          -0.000002649   -0.000008206   -0.000006781
      7        6          -0.000000180    0.000013311    0.000017082
      8        8           0.000001580   -0.000001417   -0.000010526
      9        8           0.000005283   -0.000001738    0.000004298
     10       16          -0.000006568    0.000001235    0.000013145
     11        7          -0.000003845   -0.000005233   -0.000018394
     12        8          -0.000002956   -0.000000094   -0.000010432
     13        6           0.000001247    0.000004555    0.000001710
     14        6           0.000001852   -0.000004826   -0.000000156
     15        6          -0.000002781   -0.000002381    0.000001640
     16        6           0.000003146    0.000004401    0.000000654
     17        6           0.000004976   -0.000002570   -0.000003139
     18        8           0.000004116   -0.000012203   -0.000016353
     19        6          -0.000001390    0.000000096    0.000001252
     20        6           0.000006188    0.000007112   -0.000005085
     21        8          -0.000006322    0.000005211    0.000006663
     22        6           0.000002858   -0.000007213    0.000002508
     23        7          -0.000004767   -0.000002769   -0.000003472
     24        6           0.000000269    0.000004086   -0.000003287
     25        7           0.000014123    0.000000149    0.000006287
     26        6          -0.000001875    0.000006300    0.000001431
     27        6           0.000005605   -0.000007890    0.000001083
     28       15          -0.000015717    0.000011112    0.000006251
     29        6           0.000001293   -0.000001429   -0.000003329
     30        6          -0.000001617    0.000001606    0.000000913
     31        6          -0.000001031   -0.000001345   -0.000000467
     32        6          -0.000000655   -0.000002142   -0.000001328
     33        6          -0.000000762    0.000001853    0.000002044
     34        6          -0.000004460   -0.000003070   -0.000006631
     35        6           0.000004306    0.000000421    0.000002832
     36        6          -0.000000344    0.000007523    0.000000417
     37        6          -0.000004051   -0.000003994   -0.000003116
     38        6           0.000004613   -0.000002890    0.000001712
     39        6          -0.000003371    0.000001568   -0.000001944
     40        6          -0.000003738   -0.000000219   -0.000000290
     41        6           0.000001552    0.000000548   -0.000000650
     42        6           0.000000526    0.000001345   -0.000000949
     43        6          -0.000004376    0.000000483    0.000002281
     44        1          -0.000000352   -0.000001136    0.000000428
     45        1           0.000000447   -0.000000579    0.000000720
     46        1           0.000001511   -0.000001221    0.000000873
     47        1           0.000000603   -0.000000933    0.000001450
     48        1           0.000001421   -0.000001764   -0.000002405
     49        1           0.000000112    0.000000719    0.000006391
     50        1           0.000000577   -0.000001833    0.000000828
     51        1           0.000000541    0.000000564    0.000000593
     52        1           0.000001641    0.000000496   -0.000000132
     53        1           0.000000396   -0.000000579    0.000000751
     54        1          -0.000000749    0.000000689    0.000002283
     55        1          -0.000001758   -0.000000386    0.000000610
     56        1          -0.000000913   -0.000000516   -0.000000024
     57        1          -0.000000392   -0.000000176   -0.000000575
     58        1           0.000000103    0.000001242   -0.000000273
     59        1          -0.000000159    0.000000667   -0.000000026
     60        1           0.000000145    0.000001102    0.000000321
     61        1          -0.000001239    0.000001051   -0.000000733
     62        1           0.000000165    0.000001108   -0.000001076
     63        1           0.000000482    0.000002018    0.000000213
     64        1           0.000000952    0.000001201    0.000000553
     65        1           0.000000899    0.000000204   -0.000000737
     66        1           0.000000143   -0.000000146   -0.000000188
     67        1          -0.000000420   -0.000000013    0.000000055
     68        1          -0.000000718    0.000001123   -0.000000403
     69        1          -0.000000306    0.000000344    0.000001584
 -------------------------------------------------------------------
 Cartesian Forces:  Max     0.000018394 RMS     0.000004327
 FormGI is forming the generalized inverse of G from B-inverse, IUseBI=4.

 ----------------------------------------------------------------------

 Electric dipole moment (input orientation):
 (Debye = 10**-18 statcoulomb cm , SI units = C m)
                  (au)            (Debye)         (10**-30 SI)
   Tot        0.297807D+01      0.756949D+01      0.252491D+02
   x         -0.245389D+01     -0.623718D+01     -0.208050D+02
   y          0.203126D+00      0.516295D+00      0.172217D+01
   z          0.167512D+01      0.425773D+01      0.142023D+02

 Dipole polarizability, Alpha (input orientation).
 (esu units = cm**3 , SI units = C**2 m**2 J**-1)
 Alpha(0;0):
               (au)            (10**-24 esu)      (10**-40 SI)
   iso        0.495882D+03      0.734821D+02      0.817599D+02
   aniso      0.128859D+03      0.190949D+02      0.212460D+02
   xx         0.539869D+03      0.800003D+02      0.890123D+02
   yx         0.180737D+02      0.267825D+01      0.297996D+01
   yy         0.504090D+03      0.746984D+02      0.831131D+02
   zx        -0.458457D+02     -0.679363D+01     -0.755893D+01
   zy         0.272619D+02      0.403979D+01      0.449488D+01
   zz         0.443688D+03      0.657478D+02      0.731543D+02

 ----------------------------------------------------------------------

 Dipole orientation:
     6          5.76457728          3.79772357         -4.03643708
     6          6.75051687          5.98783981         -5.09251648
     6          6.15906523          6.62456272         -7.57937004
     6          4.60410985          5.06146434         -9.00163597
     6          3.63312877          2.88413895         -7.90581354
     6          4.16102728          2.21847882         -5.41406367
     6          3.11595603         -0.16511826         -4.19361441
     8         -0.51201943         -2.36810894        -10.06694128
     8          4.12764645         -2.73945367         -9.15004402
    16          1.71292523         -1.50880343         -8.75556489
     7          1.02265904         -1.17101163         -5.72974796
     8          2.02993386          1.45288751         -9.44587458
     6          1.46891256          6.79235534          0.59319487
     6          2.00558286          9.21064492          1.48900154
     6          1.51195758          9.83347636          3.99455996
     6          0.47682680          8.02799299          5.61265765
     6         -0.06307786          5.61783031          4.72249789
     8         -2.47247851          1.49164932          2.12403005
     6          0.42738291          4.99207866          2.20551748
     6         -0.07512113          2.31811320          1.33108001
     8          0.27073101          2.11563694         -1.33734131
     6          2.11298276          0.34495946         -1.60748873
     7          2.87845745         -0.72102788          0.41713126
     6         -1.48153843         -3.89121482          1.05122294
     7          1.46535802          0.32609643          2.39842890
     6         -5.16074961         -1.81393070          4.19944531
     6         -0.39385606         -2.17956273          6.47298430
    15         -1.75463962         -1.36594575          3.37960913
     6          0.13660538         -5.95237763          1.33664911
     6          0.29963418         -7.76974957         -0.55797975
     6         -1.13721261         -7.53153870         -2.75029648
     6         -2.75993470         -5.47534917         -3.03948893
     6         -2.93208520         -3.65727518         -1.14296952
     6         -6.12891531         -4.26706264          4.40809045
     6         -8.61474872         -4.68138611          5.15588373
     6        -10.17913336         -2.64063574          5.71919429
     6         -9.23909662         -0.19182856          5.53022201
     6         -6.74931327          0.21896826          4.77767345
     6          2.18881210         -2.74947682          6.65863608
     6          3.22870219         -3.49460014          8.95062338
     6          1.72888636         -3.59600074         11.11352753
     6         -0.81932706         -2.97284331         10.96453491
     6         -1.88408774         -2.29393660          8.65528098
     1          6.21455216          3.30326790         -2.09464122
     1          7.97488767          7.19478074         -3.97654739
     1          6.91695910          8.33365040         -8.42042101
     1          4.12518240          5.49656912        -10.94582323
     1          4.63292775         -1.56220680         -3.97603756
     1          0.25998921         -2.79247095         -5.01360277
     1          1.85529998          6.31162290         -1.36097367
     1          2.81200795         10.60500214          0.21782636
     1          1.93229421         11.71723015          4.69098410
     1          0.08961579          8.50094794          7.57122118
     1         -0.86080427          4.21387825          5.99020701
     1          1.27267764         -6.15401136          3.03146536
     1          1.55657715         -9.37255967         -0.31988600
     1         -1.00341899         -8.94813895         -4.22759780
     1         -3.89696345         -5.28492688         -4.73743568
     1         -4.19497958         -2.05635687         -1.37923489
     1         -4.93471980         -5.88295673          3.98472279
     1         -9.32927362         -6.59973849          5.29694578
     1        -12.12088240         -2.95933324          6.30130781
     1        -10.44456340          1.41091724          5.96546717
     1         -6.04343678          2.13723677          4.63848976
     1          3.39255088         -2.59048091          5.00995699
     1          5.22286439         -3.96344576          9.05402379
     1          2.55179179         -4.14525252         12.91098384
     1         -1.99621911         -3.02282132         12.64365387
     1         -3.87893927         -1.84265802          8.57900552

 Electric dipole moment (dipole orientation):
 (Debye = 10**-18 statcoulomb cm , SI units = C m)
                  (au)            (Debye)         (10**-30 SI)
   Tot        0.297807D+01      0.756949D+01      0.252491D+02
   x          0.000000D+00      0.000000D+00      0.000000D+00
   y          0.000000D+00      0.000000D+00      0.000000D+00
   z          0.297807D+01      0.756949D+01      0.252491D+02

 Dipole polarizability, Alpha (dipole orientation).
 (esu units = cm**3 , SI units = C**2 m**2 J**-1)
 Alpha(0;0):
               (au)            (10**-24 esu)      (10**-40 SI)
   iso        0.495882D+03      0.734821D+02      0.817599D+02
   aniso      0.128859D+03      0.190949D+02      0.212460D+02
   xx         0.434149D+03      0.643342D+02      0.715815D+02
   yx         0.370745D+02      0.549388D+01      0.611276D+01
   yy         0.501668D+03      0.743396D+02      0.827139D+02
   zx        -0.258751D+02     -0.383429D+01     -0.426623D+01
   zy        -0.188924D+01     -0.279957D+00     -0.311494D+00
   zz         0.551829D+03      0.817726D+02      0.909843D+02

 ----------------------------------------------------------------------

 This type of calculation cannot be archived.


 GARBAGE IN, GARBAGE OUT
 Job cpu time:       0 days  0 hours  0 minutes  2.3 seconds.
 Elapsed time:       0 days  0 hours  0 minutes  0.6 seconds.
 File lengths (MBytes):  RWF=     10 Int=      0 D2E=      0 Chk=     12 Scr=      1
 Normal termination of Gaussian 16 at Sat Apr  4 18:13:14 2020.
