 Entering Gaussian System, Link 0=g16
 Initial command:
 /apps/cent7/gaussian/g16-A.03/g16-haswell/g16/l1.exe "/scratch/brown/finej/0051_imine_mechanism/ts_631gd/cyclic_complete_2/new_logs_2/Gau-213348.inp" -scrdir="/scratch/brown/finej/0051_imine_mechanism/ts_631gd/cyclic_complete_2/new_logs_2/"
 Entering Link 1 = /apps/cent7/gaussian/g16-A.03/g16-haswell/g16/l1.exe PID=    213349.
  
 Copyright (c) 1988,1990,1992,1993,1995,1998,2003,2009,2016,
            Gaussian, Inc.  All Rights Reserved.
  
 This is part of the Gaussian(R) 16 program.  It is based on
 the Gaussian(R) 09 system (copyright 2009, Gaussian, Inc.),
 the Gaussian(R) 03 system (copyright 2003, Gaussian, Inc.),
 the Gaussian(R) 98 system (copyright 1998, Gaussian, Inc.),
 the Gaussian(R) 94 system (copyright 1995, Gaussian, Inc.),
 the Gaussian 92(TM) system (copyright 1992, Gaussian, Inc.),
 the Gaussian 90(TM) system (copyright 1990, Gaussian, Inc.),
 the Gaussian 88(TM) system (copyright 1988, Gaussian, Inc.),
 the Gaussian 86(TM) system (copyright 1986, Carnegie Mellon
 University), and the Gaussian 82(TM) system (copyright 1983,
 Carnegie Mellon University). Gaussian is a federally registered
 trademark of Gaussian, Inc.
  
 This software contains proprietary and confidential information,
 including trade secrets, belonging to Gaussian, Inc.
  
 This software is provided under written license and may be
 used, copied, transmitted, or stored only in accord with that
 written license.
  
 The following legend is applicable only to US Government
 contracts under FAR:
  
                    RESTRICTED RIGHTS LEGEND
  
 Use, reproduction and disclosure by the US Government is
 subject to restrictions as set forth in subparagraphs (a)
 and (c) of the Commercial Computer Software - Restricted
 Rights clause in FAR 52.227-19.
  
 Gaussian, Inc.
 340 Quinnipiac St., Bldg. 40, Wallingford CT 06492
  
  
 ---------------------------------------------------------------
 Warning -- This program may not be used in any manner that
 competes with the business of Gaussian, Inc. or will provide
 assistance to any competitor of Gaussian, Inc.  The licensee
 of this program is prohibited from giving any competitor of
 Gaussian, Inc. access to this program.  By using this program,
 the user acknowledges that Gaussian, Inc. is engaged in the
 business of creating and licensing software in the field of
 computational chemistry and represents and warrants to the
 licensee that it is not a competitor of Gaussian, Inc. and that
 it will not use this program in any manner prohibited above.
 ---------------------------------------------------------------
  

 Cite this work as:
 Gaussian 16, Revision A.03,
 M. J. Frisch, G. W. Trucks, H. B. Schlegel, G. E. Scuseria, 
 M. A. Robb, J. R. Cheeseman, G. Scalmani, V. Barone, 
 G. A. Petersson, H. Nakatsuji, X. Li, M. Caricato, A. V. Marenich, 
 J. Bloino, B. G. Janesko, R. Gomperts, B. Mennucci, H. P. Hratchian, 
 J. V. Ortiz, A. F. Izmaylov, J. L. Sonnenberg, D. Williams-Young, 
 F. Ding, F. Lipparini, F. Egidi, J. Goings, B. Peng, A. Petrone, 
 T. Henderson, D. Ranasinghe, V. G. Zakrzewski, J. Gao, N. Rega, 
 G. Zheng, W. Liang, M. Hada, M. Ehara, K. Toyota, R. Fukuda, 
 J. Hasegawa, M. Ishida, T. Nakajima, Y. Honda, O. Kitao, H. Nakai, 
 T. Vreven, K. Throssell, J. A. Montgomery, Jr., J. E. Peralta, 
 F. Ogliaro, M. J. Bearpark, J. J. Heyd, E. N. Brothers, K. N. Kudin, 
 V. N. Staroverov, T. A. Keith, R. Kobayashi, J. Normand, 
 K. Raghavachari, A. P. Rendell, J. C. Burant, S. S. Iyengar, 
 J. Tomasi, M. Cossi, J. M. Millam, M. Klene, C. Adamo, R. Cammi, 
 J. W. Ochterski, R. L. Martin, K. Morokuma, O. Farkas, 
 J. B. Foresman, and D. J. Fox, Gaussian, Inc., Wallingford CT, 2016.
 
 ******************************************
 Gaussian 16:  ES64L-G16RevA.03 25-Dec-2016
                 4-Apr-2020 
 ******************************************
 %nprocshared=4
 Will use up to    4 processors via shared memory.
 %mem=1GB
 %oldchk=chk/cyclic_4.chk
 Copying data from "chk/cyclic_4.chk" to current chk file "/scratch/brown/finej/0051_imine_mechanism/ts_631gd/cyclic_complete_2/new_logs_2/Gau-213349.chk"
 IOpt=  2 FromEx=T IUOpen= 4 IOptOp= 5 NList=   0 IFRang= 0 IUIn= 4 IUOut= 2.
 ----------------------------------------------------------------------
 # freq=readfc wb97xd/6-31g(d) scrf=solvent=dichloromethane geom=check 
 temperature=263.15
 ----------------------------------------------------------------------
 1/29=2,38=1,112=263150,172=1/1;
 2/12=2,40=1/2;
 7/8=1,25=11/16;
 99/5=2/99;
 --------------
 Intermediate 3
 --------------
 Structure from the checkpoint file:  "/scratch/brown/finej/0051_imine_mechanism/ts_631gd/cyclic_complete_2/new_logs_2/Gau-213349.chk"
 Charge =  0 Multiplicity = 1
 Redundant internal coordinates found in file.  (old form).
 C,0,-3.3073256015,-0.3009950266,-1.9974313361
 C,0,-4.0373278606,0.06032563,-3.1215808854
 C,0,-5.3007931762,0.6307328572,-2.9751159926
 C,0,-5.8310760011,0.8263639601,-1.7071025937
 C,0,-5.0826731266,0.4583156953,-0.5969691716
 C,0,-3.8098149838,-0.0960342244,-0.7107225872
 C,0,-2.9879909015,-0.5190628622,0.4984925306
 O,0,-5.6194009303,0.5321653961,3.0836697939
 O,0,-5.5541687668,-1.5396661043,1.6688330212
 S,0,-5.1731154449,-0.1605049056,1.9021497857
 N,0,-3.5503891002,0.0890390829,1.7165143231
 O,0,-5.6775995747,0.7193655922,0.6425356352
 C,0,1.5577942191,3.3621052494,-0.1722745608
 C,0,2.0192261746,4.262843806,-1.1285051217
 C,0,1.7111834623,4.0706719088,-2.472441728
 C,0,0.9327097783,2.9782453313,-2.8557433383
 C,0,0.4735732243,2.0804358949,-1.8983965091
 O,0,0.7030896766,1.4822076744,1.7071840507
 C,0,0.7902160013,2.26581342,-0.5520395246
 C,0,0.3704831968,1.2800551759,0.5257448258
 O,0,-1.2661934321,1.1988339747,0.3557015363
 C,0,-1.5599016368,-0.0711470995,0.3593559557
 N,0,-0.6268428127,-0.9466211332,0.1958086441
 C,0,2.037714213,-1.9038305729,1.7469341362
 N,0,0.5397610784,-0.1811761024,-0.0105792504
 C,0,3.2805688528,0.1974284364,0.0520303048
 C,0,2.1592912055,-2.1923144751,-1.1719659409
 P,0,1.9589698161,-1.0124773926,0.1803975438
 C,0,2.6829983131,-3.1407806868,1.8463653101
 C,0,2.7368526452,-3.7894741798,3.0751688804
 C,0,2.1443126049,-3.2109345016,4.1956734813
 C,0,1.4950202845,-1.9824086994,4.0924130465
 C,0,1.4348533655,-1.3227406232,2.8694305114
 C,0,3.9196645903,0.6756502371,1.197333576
 C,0,4.8834931772,1.671042325,1.0786625074
 C,0,5.2031254823,2.1866595534,-0.1747230153
 C,0,4.5655326538,1.7082207281,-1.3176228689
 C,0,3.6049313498,0.7122848122,-1.2087029947
 C,0,1.0445765128,-2.7133129406,-1.8367941178
 C,0,1.2259592304,-3.6383335151,-2.859791232
 C,0,2.5082764243,-4.0487684585,-3.2160504222
 C,0,3.6189212226,-3.5323476823,-2.5525596948
 C,0,3.448792105,-2.6023634708,-1.5330100367
 H,0,-2.3207889537,-0.7425750694,-2.1086165105
 H,0,-3.6209628858,-0.1009959358,-4.1101784349
 H,0,-5.8777866476,0.9192429117,-3.8473641316
 H,0,-6.8144029342,1.2590608925,-1.5599343713
 H,0,-2.9802279999,-1.6145259289,0.5660287453
 H,0,-3.0484882384,-0.1566622257,2.5672264056
 H,0,1.8027849228,3.4830102705,0.8774505763
 H,0,2.6265462087,5.1106033048,-0.8245925012
 H,0,2.0743502921,4.7690909646,-3.2209758662
 H,0,0.6854105306,2.8268198309,-3.902593061
 H,0,-0.1249045226,1.2241086558,-2.1950937358
 H,0,3.134431445,-3.6035332976,0.9744935384
 H,0,3.2359877912,-4.7496399319,3.1552922664
 H,0,2.1847583727,-3.7228730223,5.1521861808
 H,0,1.0297539322,-1.5370531408,4.9659764124
 H,0,0.9378731283,-0.3588154074,2.7680051116
 H,0,3.6613415937,0.2829895488,2.1750091067
 H,0,5.3815087274,2.0456556559,1.9667907234
 H,0,5.9524194677,2.9673176612,-0.2617699854
 H,0,4.8086232577,2.1169884999,-2.2924553886
 H,0,3.0989473556,0.3503310053,-2.0978791998
 H,0,0.0469121829,-2.397982481,-1.5510376794
 H,0,0.3615585435,-4.0390791508,-3.3791810054
 H,0,2.6433265218,-4.7709031577,-4.0151171522
 H,0,4.618960897,-3.8468854967,-2.8321782484
 H,0,4.3195760767,-2.1906298569,-1.0310675974
 Recover connectivity data from disk.
                           ----------------------------
                           !    Current Parameters    !
                           ! (Angstroms and Degrees)  !
 --------------------------                            --------------------------
 ! Name  Definition              Value          Derivative Info.                !
 --------------------------------------------------------------------------------
 ! R1    R(1,2)                  1.3882         estimate D2E/DX2                !
 ! R2    R(1,6)                  1.3965         estimate D2E/DX2                !
 ! R3    R(1,44)                 1.0866         estimate D2E/DX2                !
 ! R4    R(2,3)                  1.394          estimate D2E/DX2                !
 ! R5    R(2,45)                 1.0848         estimate D2E/DX2                !
 ! R6    R(3,4)                  1.3883         estimate D2E/DX2                !
 ! R7    R(3,46)                 1.0849         estimate D2E/DX2                !
 ! R8    R(4,5)                  1.3885         estimate D2E/DX2                !
 ! R9    R(4,47)                 1.0844         estimate D2E/DX2                !
 ! R10   R(5,6)                  1.393          estimate D2E/DX2                !
 ! R11   R(5,12)                 1.3994         estimate D2E/DX2                !
 ! R12   R(6,7)                  1.522          estimate D2E/DX2                !
 ! R13   R(7,11)                 1.473          estimate D2E/DX2                !
 ! R14   R(7,22)                 1.5031         estimate D2E/DX2                !
 ! R15   R(7,48)                 1.0976         estimate D2E/DX2                !
 ! R16   R(8,10)                 1.4405         estimate D2E/DX2                !
 ! R17   R(9,10)                 1.4497         estimate D2E/DX2                !
 ! R18   R(10,11)                1.6523         estimate D2E/DX2                !
 ! R19   R(10,12)                1.6172         estimate D2E/DX2                !
 ! R20   R(11,49)                1.0178         estimate D2E/DX2                !
 ! R21   R(13,14)                1.3923         estimate D2E/DX2                !
 ! R22   R(13,19)                1.3911         estimate D2E/DX2                !
 ! R23   R(13,50)                1.0847         estimate D2E/DX2                !
 ! R24   R(14,15)                1.3921         estimate D2E/DX2                !
 ! R25   R(14,51)                1.0862         estimate D2E/DX2                !
 ! R26   R(15,16)                1.3951         estimate D2E/DX2                !
 ! R27   R(15,52)                1.0863         estimate D2E/DX2                !
 ! R28   R(16,17)                1.3905         estimate D2E/DX2                !
 ! R29   R(16,53)                1.0863         estimate D2E/DX2                !
 ! R30   R(17,19)                1.3955         estimate D2E/DX2                !
 ! R31   R(17,54)                1.086          estimate D2E/DX2                !
 ! R32   R(18,20)                1.2439         estimate D2E/DX2                !
 ! R33   R(19,20)                1.5197         estimate D2E/DX2                !
 ! R34   R(20,21)                1.6475         estimate D2E/DX2                !
 ! R35   R(20,25)                1.5657         estimate D2E/DX2                !
 ! R36   R(21,22)                1.3035         estimate D2E/DX2                !
 ! R37   R(22,23)                1.2899         estimate D2E/DX2                !
 ! R38   R(23,25)                1.4105         estimate D2E/DX2                !
 ! R39   R(24,28)                1.8041         estimate D2E/DX2                !
 ! R40   R(24,29)                1.3987         estimate D2E/DX2                !
 ! R41   R(24,33)                1.4004         estimate D2E/DX2                !
 ! R42   R(25,28)                1.6558         estimate D2E/DX2                !
 ! R43   R(26,28)                1.7964         estimate D2E/DX2                !
 ! R44   R(26,34)                1.396          estimate D2E/DX2                !
 ! R45   R(26,38)                1.3999         estimate D2E/DX2                !
 ! R46   R(27,28)                1.8058         estimate D2E/DX2                !
 ! R47   R(27,39)                1.3986         estimate D2E/DX2                !
 ! R48   R(27,43)                1.4005         estimate D2E/DX2                !
 ! R49   R(29,30)                1.3906         estimate D2E/DX2                !
 ! R50   R(29,55)                1.0854         estimate D2E/DX2                !
 ! R51   R(30,31)                1.3933         estimate D2E/DX2                !
 ! R52   R(30,56)                1.0851         estimate D2E/DX2                !
 ! R53   R(31,32)                1.3934         estimate D2E/DX2                !
 ! R54   R(31,57)                1.0856         estimate D2E/DX2                !
 ! R55   R(32,33)                1.3909         estimate D2E/DX2                !
 ! R56   R(32,58)                1.0853         estimate D2E/DX2                !
 ! R57   R(33,59)                1.0892         estimate D2E/DX2                !
 ! R58   R(34,35)                1.3906         estimate D2E/DX2                !
 ! R59   R(34,60)                1.0848         estimate D2E/DX2                !
 ! R60   R(35,36)                1.3925         estimate D2E/DX2                !
 ! R61   R(35,61)                1.085          estimate D2E/DX2                !
 ! R62   R(36,37)                1.3934         estimate D2E/DX2                !
 ! R63   R(36,62)                1.0856         estimate D2E/DX2                !
 ! R64   R(37,38)                1.388          estimate D2E/DX2                !
 ! R65   R(37,63)                1.0847         estimate D2E/DX2                !
 ! R66   R(38,64)                1.0852         estimate D2E/DX2                !
 ! R67   R(39,40)                1.3911         estimate D2E/DX2                !
 ! R68   R(39,65)                1.0846         estimate D2E/DX2                !
 ! R69   R(40,41)                1.3927         estimate D2E/DX2                !
 ! R70   R(40,66)                1.0852         estimate D2E/DX2                !
 ! R71   R(41,42)                1.393          estimate D2E/DX2                !
 ! R72   R(41,67)                1.0855         estimate D2E/DX2                !
 ! R73   R(42,43)                1.3904         estimate D2E/DX2                !
 ! R74   R(42,68)                1.085          estimate D2E/DX2                !
 ! R75   R(43,69)                1.0862         estimate D2E/DX2                !
 ! A1    A(2,1,6)              121.2458         estimate D2E/DX2                !
 ! A2    A(2,1,44)             120.0238         estimate D2E/DX2                !
 ! A3    A(6,1,44)             118.7271         estimate D2E/DX2                !
 ! A4    A(1,2,3)              119.8705         estimate D2E/DX2                !
 ! A5    A(1,2,45)             119.8309         estimate D2E/DX2                !
 ! A6    A(3,2,45)             120.2985         estimate D2E/DX2                !
 ! A7    A(2,3,4)              119.9893         estimate D2E/DX2                !
 ! A8    A(2,3,46)             120.4242         estimate D2E/DX2                !
 ! A9    A(4,3,46)             119.5856         estimate D2E/DX2                !
 ! A10   A(3,4,5)              119.1447         estimate D2E/DX2                !
 ! A11   A(3,4,47)             121.7745         estimate D2E/DX2                !
 ! A12   A(5,4,47)             119.0808         estimate D2E/DX2                !
 ! A13   A(4,5,6)              122.1888         estimate D2E/DX2                !
 ! A14   A(4,5,12)             115.4394         estimate D2E/DX2                !
 ! A15   A(6,5,12)             122.345          estimate D2E/DX2                !
 ! A16   A(1,6,5)              117.5453         estimate D2E/DX2                !
 ! A17   A(1,6,7)              119.7984         estimate D2E/DX2                !
 ! A18   A(5,6,7)              122.6238         estimate D2E/DX2                !
 ! A19   A(6,7,11)             109.637          estimate D2E/DX2                !
 ! A20   A(6,7,22)             110.8936         estimate D2E/DX2                !
 ! A21   A(6,7,48)             109.2755         estimate D2E/DX2                !
 ! A22   A(11,7,22)            108.4375         estimate D2E/DX2                !
 ! A23   A(11,7,48)            111.3378         estimate D2E/DX2                !
 ! A24   A(22,7,48)            107.241          estimate D2E/DX2                !
 ! A25   A(8,10,9)             120.5326         estimate D2E/DX2                !
 ! A26   A(8,10,11)            108.8935         estimate D2E/DX2                !
 ! A27   A(8,10,12)            106.2959         estimate D2E/DX2                !
 ! A28   A(9,10,11)            112.5657         estimate D2E/DX2                !
 ! A29   A(9,10,12)            108.0738         estimate D2E/DX2                !
 ! A30   A(11,10,12)            97.8565         estimate D2E/DX2                !
 ! A31   A(7,11,10)            113.9249         estimate D2E/DX2                !
 ! A32   A(7,11,49)            113.7789         estimate D2E/DX2                !
 ! A33   A(10,11,49)           110.7278         estimate D2E/DX2                !
 ! A34   A(5,12,10)            117.1142         estimate D2E/DX2                !
 ! A35   A(14,13,19)           120.3437         estimate D2E/DX2                !
 ! A36   A(14,13,50)           121.1764         estimate D2E/DX2                !
 ! A37   A(19,13,50)           118.4669         estimate D2E/DX2                !
 ! A38   A(13,14,15)           120.0247         estimate D2E/DX2                !
 ! A39   A(13,14,51)           119.8702         estimate D2E/DX2                !
 ! A40   A(15,14,51)           120.1031         estimate D2E/DX2                !
 ! A41   A(14,15,16)           119.7887         estimate D2E/DX2                !
 ! A42   A(14,15,52)           120.1659         estimate D2E/DX2                !
 ! A43   A(16,15,52)           120.0454         estimate D2E/DX2                !
 ! A44   A(15,16,17)           120.0457         estimate D2E/DX2                !
 ! A45   A(15,16,53)           120.0639         estimate D2E/DX2                !
 ! A46   A(17,16,53)           119.8904         estimate D2E/DX2                !
 ! A47   A(16,17,19)           120.2372         estimate D2E/DX2                !
 ! A48   A(16,17,54)           120.1976         estimate D2E/DX2                !
 ! A49   A(19,17,54)           119.5618         estimate D2E/DX2                !
 ! A50   A(13,19,17)           119.5559         estimate D2E/DX2                !
 ! A51   A(13,19,20)           118.0317         estimate D2E/DX2                !
 ! A52   A(17,19,20)           122.3718         estimate D2E/DX2                !
 ! A53   A(18,20,19)           119.6253         estimate D2E/DX2                !
 ! A54   A(18,20,21)           111.8191         estimate D2E/DX2                !
 ! A55   A(18,20,25)           116.6218         estimate D2E/DX2                !
 ! A56   A(19,20,21)           103.4831         estimate D2E/DX2                !
 ! A57   A(19,20,25)           109.4247         estimate D2E/DX2                !
 ! A58   A(21,20,25)            91.4922         estimate D2E/DX2                !
 ! A59   A(20,21,22)           105.7586         estimate D2E/DX2                !
 ! A60   A(7,22,21)            120.3084         estimate D2E/DX2                !
 ! A61   A(7,22,23)            119.7843         estimate D2E/DX2                !
 ! A62   A(21,22,23)           119.8625         estimate D2E/DX2                !
 ! A63   A(22,23,25)           104.3896         estimate D2E/DX2                !
 ! A64   A(28,24,29)           121.2522         estimate D2E/DX2                !
 ! A65   A(28,24,33)           118.1777         estimate D2E/DX2                !
 ! A66   A(29,24,33)           120.5701         estimate D2E/DX2                !
 ! A67   A(20,25,23)           111.5259         estimate D2E/DX2                !
 ! A68   A(20,25,28)           121.4467         estimate D2E/DX2                !
 ! A69   A(23,25,28)           114.8081         estimate D2E/DX2                !
 ! A70   A(28,26,34)           120.5908         estimate D2E/DX2                !
 ! A71   A(28,26,38)           118.8506         estimate D2E/DX2                !
 ! A72   A(34,26,38)           120.45           estimate D2E/DX2                !
 ! A73   A(28,27,39)           120.7278         estimate D2E/DX2                !
 ! A74   A(28,27,43)           119.111          estimate D2E/DX2                !
 ! A75   A(39,27,43)           120.1496         estimate D2E/DX2                !
 ! A76   A(24,28,25)           112.6818         estimate D2E/DX2                !
 ! A77   A(24,28,26)           111.2666         estimate D2E/DX2                !
 ! A78   A(24,28,27)           108.8222         estimate D2E/DX2                !
 ! A79   A(25,28,26)           106.5105         estimate D2E/DX2                !
 ! A80   A(25,28,27)           109.6772         estimate D2E/DX2                !
 ! A81   A(26,28,27)           107.7534         estimate D2E/DX2                !
 ! A82   A(24,29,30)           119.5538         estimate D2E/DX2                !
 ! A83   A(24,29,55)           120.7852         estimate D2E/DX2                !
 ! A84   A(30,29,55)           119.6589         estimate D2E/DX2                !
 ! A85   A(29,30,31)           120.0316         estimate D2E/DX2                !
 ! A86   A(29,30,56)           119.7255         estimate D2E/DX2                !
 ! A87   A(31,30,56)           120.2417         estimate D2E/DX2                !
 ! A88   A(30,31,32)           120.3093         estimate D2E/DX2                !
 ! A89   A(30,31,57)           119.7949         estimate D2E/DX2                !
 ! A90   A(32,31,57)           119.895          estimate D2E/DX2                !
 ! A91   A(31,32,33)           120.2316         estimate D2E/DX2                !
 ! A92   A(31,32,58)           120.1262         estimate D2E/DX2                !
 ! A93   A(33,32,58)           119.6417         estimate D2E/DX2                !
 ! A94   A(24,33,32)           119.3001         estimate D2E/DX2                !
 ! A95   A(24,33,59)           119.2744         estimate D2E/DX2                !
 ! A96   A(32,33,59)           121.4224         estimate D2E/DX2                !
 ! A97   A(26,34,35)           119.5041         estimate D2E/DX2                !
 ! A98   A(26,34,60)           120.4235         estimate D2E/DX2                !
 ! A99   A(35,34,60)           120.0695         estimate D2E/DX2                !
 ! A100  A(34,35,36)           120.0629         estimate D2E/DX2                !
 ! A101  A(34,35,61)           119.6982         estimate D2E/DX2                !
 ! A102  A(36,35,61)           120.2385         estimate D2E/DX2                !
 ! A103  A(35,36,37)           120.4047         estimate D2E/DX2                !
 ! A104  A(35,36,62)           119.795          estimate D2E/DX2                !
 ! A105  A(37,36,62)           119.8002         estimate D2E/DX2                !
 ! A106  A(36,37,38)           119.9128         estimate D2E/DX2                !
 ! A107  A(36,37,63)           120.3453         estimate D2E/DX2                !
 ! A108  A(38,37,63)           119.739          estimate D2E/DX2                !
 ! A109  A(26,38,37)           119.6649         estimate D2E/DX2                !
 ! A110  A(26,38,64)           120.4779         estimate D2E/DX2                !
 ! A111  A(37,38,64)           119.849          estimate D2E/DX2                !
 ! A112  A(27,39,40)           119.5622         estimate D2E/DX2                !
 ! A113  A(27,39,65)           119.9727         estimate D2E/DX2                !
 ! A114  A(40,39,65)           120.4647         estimate D2E/DX2                !
 ! A115  A(39,40,41)           120.2737         estimate D2E/DX2                !
 ! A116  A(39,40,66)           119.5837         estimate D2E/DX2                !
 ! A117  A(41,40,66)           120.1426         estimate D2E/DX2                !
 ! A118  A(40,41,42)           120.1989         estimate D2E/DX2                !
 ! A119  A(40,41,67)           119.9283         estimate D2E/DX2                !
 ! A120  A(42,41,67)           119.8725         estimate D2E/DX2                !
 ! A121  A(41,42,43)           119.9774         estimate D2E/DX2                !
 ! A122  A(41,42,68)           120.3085         estimate D2E/DX2                !
 ! A123  A(43,42,68)           119.7125         estimate D2E/DX2                !
 ! A124  A(27,43,42)           119.837          estimate D2E/DX2                !
 ! A125  A(27,43,69)           120.5347         estimate D2E/DX2                !
 ! A126  A(42,43,69)           119.6241         estimate D2E/DX2                !
 ! D1    D(6,1,2,3)             -0.4531         estimate D2E/DX2                !
 ! D2    D(6,1,2,45)           179.4387         estimate D2E/DX2                !
 ! D3    D(44,1,2,3)          -179.7845         estimate D2E/DX2                !
 ! D4    D(44,1,2,45)            0.1074         estimate D2E/DX2                !
 ! D5    D(2,1,6,5)              1.3317         estimate D2E/DX2                !
 ! D6    D(2,1,6,7)            179.3127         estimate D2E/DX2                !
 ! D7    D(44,1,6,5)          -179.3285         estimate D2E/DX2                !
 ! D8    D(44,1,6,7)            -1.3474         estimate D2E/DX2                !
 ! D9    D(1,2,3,4)             -0.5238         estimate D2E/DX2                !
 ! D10   D(1,2,3,46)           179.8133         estimate D2E/DX2                !
 ! D11   D(45,2,3,4)           179.5848         estimate D2E/DX2                !
 ! D12   D(45,2,3,46)           -0.0781         estimate D2E/DX2                !
 ! D13   D(2,3,4,5)              0.5693         estimate D2E/DX2                !
 ! D14   D(2,3,4,47)          -179.4327         estimate D2E/DX2                !
 ! D15   D(46,3,4,5)          -179.7649         estimate D2E/DX2                !
 ! D16   D(46,3,4,47)            0.233          estimate D2E/DX2                !
 ! D17   D(3,4,5,6)              0.3612         estimate D2E/DX2                !
 ! D18   D(3,4,5,12)           178.5189         estimate D2E/DX2                !
 ! D19   D(47,4,5,6)          -179.6368         estimate D2E/DX2                !
 ! D20   D(47,4,5,12)           -1.4791         estimate D2E/DX2                !
 ! D21   D(4,5,6,1)             -1.2937         estimate D2E/DX2                !
 ! D22   D(4,5,6,7)           -179.2135         estimate D2E/DX2                !
 ! D23   D(12,5,6,1)          -179.3244         estimate D2E/DX2                !
 ! D24   D(12,5,6,7)             2.7558         estimate D2E/DX2                !
 ! D25   D(4,5,12,10)          156.8935         estimate D2E/DX2                !
 ! D26   D(6,5,12,10)          -24.952          estimate D2E/DX2                !
 ! D27   D(1,6,7,11)           165.9598         estimate D2E/DX2                !
 ! D28   D(1,6,7,22)            46.2477         estimate D2E/DX2                !
 ! D29   D(1,6,7,48)           -71.7601         estimate D2E/DX2                !
 ! D30   D(5,6,7,11)           -16.1657         estimate D2E/DX2                !
 ! D31   D(5,6,7,22)          -135.8778         estimate D2E/DX2                !
 ! D32   D(5,6,7,48)           106.1145         estimate D2E/DX2                !
 ! D33   D(6,7,11,10)           51.5495         estimate D2E/DX2                !
 ! D34   D(6,7,11,49)          179.7634         estimate D2E/DX2                !
 ! D35   D(22,7,11,10)         172.7544         estimate D2E/DX2                !
 ! D36   D(22,7,11,49)         -59.0317         estimate D2E/DX2                !
 ! D37   D(48,7,11,10)         -69.493          estimate D2E/DX2                !
 ! D38   D(48,7,11,49)          58.7208         estimate D2E/DX2                !
 ! D39   D(6,7,22,21)           65.745          estimate D2E/DX2                !
 ! D40   D(6,7,22,23)         -111.8172         estimate D2E/DX2                !
 ! D41   D(11,7,22,21)         -54.682          estimate D2E/DX2                !
 ! D42   D(11,7,22,23)         127.7558         estimate D2E/DX2                !
 ! D43   D(48,7,22,21)        -175.0172         estimate D2E/DX2                !
 ! D44   D(48,7,22,23)           7.4206         estimate D2E/DX2                !
 ! D45   D(8,10,11,7)         -177.144          estimate D2E/DX2                !
 ! D46   D(8,10,11,49)          53.0994         estimate D2E/DX2                !
 ! D47   D(9,10,11,7)           46.495          estimate D2E/DX2                !
 ! D48   D(9,10,11,49)         -83.2616         estimate D2E/DX2                !
 ! D49   D(12,10,11,7)         -66.8638         estimate D2E/DX2                !
 ! D50   D(12,10,11,49)        163.3796         estimate D2E/DX2                !
 ! D51   D(8,10,12,5)          163.702          estimate D2E/DX2                !
 ! D52   D(9,10,12,5)          -65.5926         estimate D2E/DX2                !
 ! D53   D(11,10,12,5)          51.3126         estimate D2E/DX2                !
 ! D54   D(19,13,14,15)          0.1205         estimate D2E/DX2                !
 ! D55   D(19,13,14,51)       -179.3733         estimate D2E/DX2                !
 ! D56   D(50,13,14,15)        178.7926         estimate D2E/DX2                !
 ! D57   D(50,13,14,51)         -0.7012         estimate D2E/DX2                !
 ! D58   D(14,13,19,17)         -0.6191         estimate D2E/DX2                !
 ! D59   D(14,13,19,20)        177.1184         estimate D2E/DX2                !
 ! D60   D(50,13,19,17)       -179.3266         estimate D2E/DX2                !
 ! D61   D(50,13,19,20)         -1.5892         estimate D2E/DX2                !
 ! D62   D(13,14,15,16)          0.3897         estimate D2E/DX2                !
 ! D63   D(13,14,15,52)       -179.6787         estimate D2E/DX2                !
 ! D64   D(51,14,15,16)        179.8823         estimate D2E/DX2                !
 ! D65   D(51,14,15,52)         -0.1861         estimate D2E/DX2                !
 ! D66   D(14,15,16,17)         -0.3981         estimate D2E/DX2                !
 ! D67   D(14,15,16,53)        179.6875         estimate D2E/DX2                !
 ! D68   D(52,15,16,17)        179.6703         estimate D2E/DX2                !
 ! D69   D(52,15,16,53)         -0.2441         estimate D2E/DX2                !
 ! D70   D(15,16,17,19)         -0.103          estimate D2E/DX2                !
 ! D71   D(15,16,17,54)       -179.4333         estimate D2E/DX2                !
 ! D72   D(53,16,17,19)        179.8115         estimate D2E/DX2                !
 ! D73   D(53,16,17,54)          0.4812         estimate D2E/DX2                !
 ! D74   D(16,17,19,13)          0.6101         estimate D2E/DX2                !
 ! D75   D(16,17,19,20)       -177.0252         estimate D2E/DX2                !
 ! D76   D(54,17,19,13)        179.9447         estimate D2E/DX2                !
 ! D77   D(54,17,19,20)          2.3094         estimate D2E/DX2                !
 ! D78   D(13,19,20,18)          0.9156         estimate D2E/DX2                !
 ! D79   D(13,19,20,21)        126.0878         estimate D2E/DX2                !
 ! D80   D(13,19,20,25)       -137.427          estimate D2E/DX2                !
 ! D81   D(17,19,20,18)        178.5853         estimate D2E/DX2                !
 ! D82   D(17,19,20,21)        -56.2425         estimate D2E/DX2                !
 ! D83   D(17,19,20,25)         40.2427         estimate D2E/DX2                !
 ! D84   D(18,20,21,22)        -97.3938         estimate D2E/DX2                !
 ! D85   D(19,20,21,22)        132.5488         estimate D2E/DX2                !
 ! D86   D(25,20,21,22)         22.162          estimate D2E/DX2                !
 ! D87   D(18,20,25,23)         90.4104         estimate D2E/DX2                !
 ! D88   D(18,20,25,28)        -49.934          estimate D2E/DX2                !
 ! D89   D(19,20,25,23)       -129.8533         estimate D2E/DX2                !
 ! D90   D(19,20,25,28)         89.8023         estimate D2E/DX2                !
 ! D91   D(21,20,25,23)        -24.9907         estimate D2E/DX2                !
 ! D92   D(21,20,25,28)       -165.3351         estimate D2E/DX2                !
 ! D93   D(20,21,22,7)         167.7373         estimate D2E/DX2                !
 ! D94   D(20,21,22,23)        -14.7024         estimate D2E/DX2                !
 ! D95   D(7,22,23,25)         175.1061         estimate D2E/DX2                !
 ! D96   D(21,22,23,25)         -2.4671         estimate D2E/DX2                !
 ! D97   D(22,23,25,20)         20.0887         estimate D2E/DX2                !
 ! D98   D(22,23,25,28)        163.2338         estimate D2E/DX2                !
 ! D99   D(29,24,28,25)        145.1829         estimate D2E/DX2                !
 ! D100  D(29,24,28,26)        -95.2669         estimate D2E/DX2                !
 ! D101  D(29,24,28,27)         23.3111         estimate D2E/DX2                !
 ! D102  D(33,24,28,25)        -34.9118         estimate D2E/DX2                !
 ! D103  D(33,24,28,26)         84.6384         estimate D2E/DX2                !
 ! D104  D(33,24,28,27)       -156.7836         estimate D2E/DX2                !
 ! D105  D(28,24,29,30)        179.2093         estimate D2E/DX2                !
 ! D106  D(28,24,29,55)         -1.3095         estimate D2E/DX2                !
 ! D107  D(33,24,29,30)         -0.6938         estimate D2E/DX2                !
 ! D108  D(33,24,29,55)        178.7875         estimate D2E/DX2                !
 ! D109  D(28,24,33,32)       -179.2599         estimate D2E/DX2                !
 ! D110  D(28,24,33,59)          0.1076         estimate D2E/DX2                !
 ! D111  D(29,24,33,32)          0.6461         estimate D2E/DX2                !
 ! D112  D(29,24,33,59)       -179.9864         estimate D2E/DX2                !
 ! D113  D(20,25,28,24)         87.6123         estimate D2E/DX2                !
 ! D114  D(20,25,28,26)        -34.657          estimate D2E/DX2                !
 ! D115  D(20,25,28,27)       -151.0007         estimate D2E/DX2                !
 ! D116  D(23,25,28,24)        -51.5428         estimate D2E/DX2                !
 ! D117  D(23,25,28,26)       -173.8121         estimate D2E/DX2                !
 ! D118  D(23,25,28,27)         69.8442         estimate D2E/DX2                !
 ! D119  D(34,26,28,24)        -21.2431         estimate D2E/DX2                !
 ! D120  D(34,26,28,25)        101.9151         estimate D2E/DX2                !
 ! D121  D(34,26,28,27)       -140.4611         estimate D2E/DX2                !
 ! D122  D(38,26,28,24)        162.5283         estimate D2E/DX2                !
 ! D123  D(38,26,28,25)        -74.3135         estimate D2E/DX2                !
 ! D124  D(38,26,28,27)         43.3103         estimate D2E/DX2                !
 ! D125  D(28,26,34,35)       -176.1198         estimate D2E/DX2                !
 ! D126  D(28,26,34,60)          3.2552         estimate D2E/DX2                !
 ! D127  D(38,26,34,35)          0.0483         estimate D2E/DX2                !
 ! D128  D(38,26,34,60)        179.4232         estimate D2E/DX2                !
 ! D129  D(28,26,38,37)        176.0112         estimate D2E/DX2                !
 ! D130  D(28,26,38,64)         -2.9414         estimate D2E/DX2                !
 ! D131  D(34,26,38,37)         -0.2229         estimate D2E/DX2                !
 ! D132  D(34,26,38,64)       -179.1755         estimate D2E/DX2                !
 ! D133  D(39,27,28,24)         96.964          estimate D2E/DX2                !
 ! D134  D(39,27,28,25)        -26.7161         estimate D2E/DX2                !
 ! D135  D(39,27,28,26)       -142.2726         estimate D2E/DX2                !
 ! D136  D(43,27,28,24)        -81.7994         estimate D2E/DX2                !
 ! D137  D(43,27,28,25)        154.5204         estimate D2E/DX2                !
 ! D138  D(43,27,28,26)         38.964          estimate D2E/DX2                !
 ! D139  D(28,27,39,40)       -178.8878         estimate D2E/DX2                !
 ! D140  D(28,27,39,65)          0.9013         estimate D2E/DX2                !
 ! D141  D(43,27,39,40)         -0.1371         estimate D2E/DX2                !
 ! D142  D(43,27,39,65)        179.652          estimate D2E/DX2                !
 ! D143  D(28,27,43,42)        178.5971         estimate D2E/DX2                !
 ! D144  D(28,27,43,69)         -2.1558         estimate D2E/DX2                !
 ! D145  D(39,27,43,42)         -0.1737         estimate D2E/DX2                !
 ! D146  D(39,27,43,69)        179.0734         estimate D2E/DX2                !
 ! D147  D(24,29,30,31)          0.3478         estimate D2E/DX2                !
 ! D148  D(24,29,30,56)        179.9453         estimate D2E/DX2                !
 ! D149  D(55,29,30,31)       -179.1393         estimate D2E/DX2                !
 ! D150  D(55,29,30,56)          0.4581         estimate D2E/DX2                !
 ! D151  D(29,30,31,32)          0.0388         estimate D2E/DX2                !
 ! D152  D(29,30,31,57)        179.7233         estimate D2E/DX2                !
 ! D153  D(56,30,31,32)       -179.5565         estimate D2E/DX2                !
 ! D154  D(56,30,31,57)          0.128          estimate D2E/DX2                !
 ! D155  D(30,31,32,33)         -0.0856         estimate D2E/DX2                !
 ! D156  D(30,31,32,58)        179.6635         estimate D2E/DX2                !
 ! D157  D(57,31,32,33)       -179.7697         estimate D2E/DX2                !
 ! D158  D(57,31,32,58)         -0.0207         estimate D2E/DX2                !
 ! D159  D(31,32,33,24)         -0.2544         estimate D2E/DX2                !
 ! D160  D(31,32,33,59)       -179.6079         estimate D2E/DX2                !
 ! D161  D(58,32,33,24)        179.9953         estimate D2E/DX2                !
 ! D162  D(58,32,33,59)          0.6418         estimate D2E/DX2                !
 ! D163  D(26,34,35,36)          0.1724         estimate D2E/DX2                !
 ! D164  D(26,34,35,61)        179.9443         estimate D2E/DX2                !
 ! D165  D(60,34,35,36)       -179.2048         estimate D2E/DX2                !
 ! D166  D(60,34,35,61)          0.5671         estimate D2E/DX2                !
 ! D167  D(34,35,36,37)         -0.22           estimate D2E/DX2                !
 ! D168  D(34,35,36,62)        179.6763         estimate D2E/DX2                !
 ! D169  D(61,35,36,37)       -179.9906         estimate D2E/DX2                !
 ! D170  D(61,35,36,62)         -0.0943         estimate D2E/DX2                !
 ! D171  D(35,36,37,38)          0.0441         estimate D2E/DX2                !
 ! D172  D(35,36,37,63)        179.4308         estimate D2E/DX2                !
 ! D173  D(62,36,37,38)       -179.8522         estimate D2E/DX2                !
 ! D174  D(62,36,37,63)         -0.4656         estimate D2E/DX2                !
 ! D175  D(36,37,38,26)          0.1758         estimate D2E/DX2                !
 ! D176  D(36,37,38,64)        179.1351         estimate D2E/DX2                !
 ! D177  D(63,37,38,26)       -179.2146         estimate D2E/DX2                !
 ! D178  D(63,37,38,64)         -0.2553         estimate D2E/DX2                !
 ! D179  D(27,39,40,41)          0.3199         estimate D2E/DX2                !
 ! D180  D(27,39,40,66)       -179.6969         estimate D2E/DX2                !
 ! D181  D(65,39,40,41)       -179.4681         estimate D2E/DX2                !
 ! D182  D(65,39,40,66)          0.515          estimate D2E/DX2                !
 ! D183  D(39,40,41,42)         -0.1927         estimate D2E/DX2                !
 ! D184  D(39,40,41,67)        179.9965         estimate D2E/DX2                !
 ! D185  D(66,40,41,42)        179.8243         estimate D2E/DX2                !
 ! D186  D(66,40,41,67)          0.0134         estimate D2E/DX2                !
 ! D187  D(40,41,42,43)         -0.1209         estimate D2E/DX2                !
 ! D188  D(40,41,42,68)       -179.675          estimate D2E/DX2                !
 ! D189  D(67,41,42,43)        179.6901         estimate D2E/DX2                !
 ! D190  D(67,41,42,68)          0.1359         estimate D2E/DX2                !
 ! D191  D(41,42,43,27)          0.3023         estimate D2E/DX2                !
 ! D192  D(41,42,43,69)       -178.9517         estimate D2E/DX2                !
 ! D193  D(68,42,43,27)        179.8591         estimate D2E/DX2                !
 ! D194  D(68,42,43,69)          0.6051         estimate D2E/DX2                !
 --------------------------------------------------------------------------------
 Stoichiometry    C33H26N3O5PS
 Framework group  C1[X(C33H26N3O5PS)]
 Deg. of freedom   201
 Full point group                 C1      NOp   1
 Largest Abelian subgroup         C1      NOp   1
 Largest concise Abelian subgroup C1      NOp   1
                         Standard orientation:                         
 ---------------------------------------------------------------------
 Center     Atomic      Atomic             Coordinates (Angstroms)
 Number     Number       Type             X           Y           Z
 ---------------------------------------------------------------------
      1          6           0        3.108063    1.050625    1.944166
      2          6           0        3.803991    2.014782    2.660583
      3          6           0        5.111589    2.337595    2.301221
      4          6           0        5.718975    1.687428    1.235531
      5          6           0        5.003511    0.727205    0.532648
      6          6           0        3.689405    0.396815    0.855728
      7          6           0        2.901869   -0.666248    0.103244
      8          8           0        5.731953   -1.520918   -2.340668
      9          8           0        5.443179   -2.258241    0.040816
     10         16           0        5.176347   -1.315421   -1.027647
     11          7           0        3.568816   -0.963552   -1.175994
     12          8           0        5.678602    0.144312   -0.545750
     13          6           0       -1.376597    2.901673   -2.164402
     14          6           0       -1.819347    4.213255   -2.014900
     15          6           0       -1.595385    4.892168   -0.820369
     16          6           0       -0.919449    4.256907    0.221691
     17          6           0       -0.478714    2.946978    0.069308
     18          8           0       -0.566403    0.239467   -2.394928
     19          6           0       -0.711614    2.261463   -1.123642
     20          6           0       -0.310384    0.808751   -1.318982
     21          8           0        1.305127    0.809667   -0.995953
     22          6           0        1.505072   -0.193148   -0.187551
     23          7           0        0.503402   -0.752249    0.402249
     24          6           0       -2.141037   -2.399274   -0.444127
     25          7           0       -0.613198    0.004409   -0.010229
     26          6           0       -3.312213    0.330928   -0.527911
     27          6           0       -2.432661   -0.803914    2.002864
     28         15           0       -2.077700   -0.728626    0.233862
     29          6           0       -2.869023   -3.412115    0.188736
     30          6           0       -2.907134   -4.683302   -0.373662
     31          6           0       -2.217319   -4.943754   -1.555889
     32          6           0       -1.486153   -3.935218   -2.180205
     33          6           0       -1.440654   -2.659233   -1.628605
     34          6           0       -3.855181    0.007795   -1.772753
     35          6           0       -4.748524    0.884500   -2.378707
     36          6           0       -5.093390    2.076398   -1.746689
     37          6           0       -4.551812    2.397902   -0.503719
     38          6           0       -3.662222    1.526927    0.109909
     39          6           0       -1.394493   -0.825520    2.939756
     40          6           0       -1.695111   -0.907155    4.295503
     41          6           0       -3.020541   -0.973737    4.718016
     42          6           0       -4.055057   -0.954981    3.785350
     43          6           0       -3.765463   -0.867033    2.428259
     44          1           0        2.087507    0.799563    2.219927
     45          1           0        3.326882    2.514874    3.496636
     46          1           0        5.662698    3.091811    2.852958
     47          1           0        6.737528    1.909215    0.936903
     48          1           0        2.817566   -1.564740    0.727958
     49          1           0        3.094525   -1.672783   -1.730993
     50          1           0       -1.558029    2.348666   -3.079731
     51          1           0       -2.346751    4.702299   -2.828889
     52          1           0       -1.944408    5.913700   -0.699374
     53          1           0       -0.737800    4.784198    1.153865
     54          1           0        0.039627    2.446965    0.882211
     55          1           0       -3.397105   -3.219543    1.117250
     56          1           0       -3.470322   -5.471382    0.115444
     57          1           0       -2.246027   -5.938761   -1.989213
     58          1           0       -0.945477   -4.142798   -3.098087
     59          1           0       -0.880429   -1.854892   -2.103591
     60          1           0       -3.576514   -0.914690   -2.270876
     61          1           0       -5.171712    0.636939   -3.346567
     62          1           0       -5.787123    2.760054   -2.226060
     63          1           0       -4.813985    3.330827   -0.016482
     64          1           0       -3.230226    1.784838    1.071432
     65          1           0       -0.363139   -0.782186    2.606808
     66          1           0       -0.890027   -0.918961    5.023001
     67          1           0       -3.248722   -1.037355    5.777313
     68          1           0       -5.088405   -1.001457    4.112812
     69          1           0       -4.576994   -0.835607    1.707035
 ---------------------------------------------------------------------
 Rotational constants (GHZ):           0.1042211           0.0562675           0.0510294
 Electric field and nuclear coordinate derivatives read from checkpoint file.
 Rotating derivatives to standard orientation.
 Full mass-weighted force constant matrix:
 Low frequencies ---   -7.7278   -6.5135    0.0047    0.0091    0.0176    3.8269
 Low frequencies ---   10.7350   18.3181   24.3247
 Diagonal vibrational polarizability:
      270.6134825     154.6490660     169.2466334
 Harmonic frequencies (cm**-1), IR intensities (KM/Mole), Raman scattering
 activities (A**4/AMU), depolarization ratios for plane and unpolarized
 incident light, reduced masses (AMU), force constants (mDyne/A),
 and normal coordinates:
                      1                      2                      3
                      A                      A                      A
 Frequencies --     10.3485                18.2924                24.1343
 Red. masses --      6.6477                 6.3213                 4.9773
 Frc consts  --      0.0004                 0.0012                 0.0017
 IR Inten    --      0.3849                 0.2751                 0.2968
  Atom  AN      X      Y      Z        X      Y      Z        X      Y      Z
     1   6    -0.10  -0.11   0.04    -0.04   0.10  -0.06    -0.04   0.02  -0.06
     2   6    -0.14  -0.13   0.10    -0.07   0.17  -0.12    -0.06   0.04  -0.06
     3   6    -0.14  -0.08   0.16    -0.08   0.19  -0.15    -0.06   0.04  -0.04
     4   6    -0.09  -0.01   0.15    -0.06   0.14  -0.11    -0.03   0.01  -0.01
     5   6    -0.04   0.00   0.08    -0.03   0.08  -0.05    -0.01  -0.00  -0.00
     6   6    -0.05  -0.04   0.02    -0.02   0.05  -0.02    -0.02  -0.00  -0.03
     7   6     0.01  -0.03  -0.06     0.01  -0.01   0.03     0.00  -0.02  -0.02
     8   8     0.11   0.15   0.00     0.04  -0.09   0.10     0.05  -0.05   0.05
     9   8     0.05   0.04  -0.04     0.05   0.06   0.15    -0.01  -0.02   0.05
    10  16     0.06   0.08  -0.01     0.03  -0.02   0.08     0.02  -0.03   0.03
    11   7     0.06   0.05  -0.04     0.02  -0.07   0.05     0.03  -0.03  -0.01
    12   8     0.01   0.07   0.08    -0.01   0.03  -0.01     0.02  -0.03   0.03
    13   6    -0.01  -0.04  -0.06     0.03  -0.02   0.00    -0.02   0.03   0.07
    14   6     0.01  -0.03  -0.06     0.05  -0.01   0.00    -0.02   0.02   0.13
    15   6     0.04  -0.02  -0.07     0.08  -0.01  -0.00    -0.01  -0.03   0.16
    16   6     0.05  -0.02  -0.08     0.09  -0.02  -0.01     0.00  -0.07   0.13
    17   6     0.03  -0.03  -0.08     0.06  -0.03  -0.01     0.00  -0.06   0.07
    18   8    -0.03  -0.04  -0.05    -0.00  -0.03  -0.01    -0.02   0.03  -0.04
    19   6     0.00  -0.04  -0.07     0.03  -0.03  -0.01    -0.01  -0.01   0.04
    20   6    -0.01  -0.04  -0.06     0.01  -0.03  -0.01    -0.01  -0.00  -0.02
    21   8     0.00  -0.04  -0.08     0.01  -0.05  -0.02     0.00  -0.02  -0.03
    22   6     0.00  -0.04  -0.07     0.01  -0.04   0.00     0.00  -0.03  -0.04
    23   7     0.01  -0.03  -0.06     0.00  -0.02   0.01     0.00  -0.04  -0.06
    24   6    -0.05  -0.01   0.01    -0.04  -0.01  -0.03    -0.01  -0.02  -0.02
    25   7     0.01  -0.03  -0.06     0.01  -0.03  -0.01     0.00  -0.04  -0.05
    26   6    -0.00   0.01   0.02     0.01   0.02   0.03    -0.00  -0.02  -0.02
    27   6     0.06   0.02   0.00     0.01  -0.05  -0.00     0.02   0.02  -0.02
    28  15     0.00  -0.00  -0.01     0.00  -0.02  -0.00    -0.00  -0.02  -0.02
    29   6    -0.07   0.02   0.02    -0.08   0.01  -0.05     0.02  -0.03  -0.01
    30   6    -0.11   0.02   0.03    -0.13   0.02  -0.08     0.01  -0.03  -0.02
    31   6    -0.13  -0.01   0.02    -0.13   0.02  -0.08    -0.02  -0.01  -0.04
    32   6    -0.11  -0.03   0.00    -0.09   0.00  -0.05    -0.05   0.00  -0.05
    33   6    -0.07  -0.03  -0.00    -0.04  -0.01  -0.03    -0.04  -0.00  -0.04
    34   6    -0.04   0.01   0.03    -0.03   0.03   0.04     0.05   0.02  -0.05
    35   6    -0.04   0.01   0.05    -0.02   0.06   0.07     0.05   0.02  -0.05
    36   6    -0.01   0.02   0.05     0.02   0.06   0.08    -0.00  -0.01  -0.01
    37   6     0.03   0.03   0.03     0.06   0.05   0.07    -0.06  -0.05   0.02
    38   6     0.03   0.02   0.02     0.06   0.02   0.04    -0.06  -0.06   0.02
    39   6     0.09  -0.00  -0.03     0.02  -0.12  -0.01     0.03   0.20  -0.02
    40   6     0.13   0.01  -0.02     0.02  -0.16  -0.01     0.05   0.27  -0.01
    41   6     0.14   0.05   0.03     0.02  -0.12  -0.00     0.06   0.16   0.00
    42   6     0.11   0.06   0.06     0.02  -0.04   0.01     0.05  -0.02   0.01
    43   6     0.07   0.05   0.05     0.01  -0.01   0.01     0.03  -0.09  -0.00
    44   1    -0.10  -0.14  -0.01    -0.03   0.08  -0.05    -0.05   0.03  -0.07
    45   1    -0.18  -0.18   0.11    -0.08   0.21  -0.15    -0.09   0.06  -0.08
    46   1    -0.18  -0.09   0.22    -0.10   0.25  -0.20    -0.07   0.05  -0.05
    47   1    -0.08   0.03   0.20    -0.07   0.16  -0.12    -0.02   0.01   0.01
    48   1     0.00  -0.06  -0.10     0.02   0.03   0.08    -0.00  -0.01  -0.02
    49   1     0.09   0.06  -0.09     0.04  -0.11   0.09     0.04  -0.04  -0.01
    50   1    -0.03  -0.04  -0.05     0.00  -0.02   0.01    -0.03   0.07   0.05
    51   1    -0.01  -0.03  -0.05     0.04  -0.01   0.01    -0.04   0.06   0.16
    52   1     0.05  -0.02  -0.07     0.10  -0.01  -0.00    -0.01  -0.03   0.21
    53   1     0.07  -0.02  -0.09     0.11  -0.02  -0.02     0.01  -0.11   0.15
    54   1     0.05  -0.03  -0.08     0.07  -0.03  -0.02     0.01  -0.09   0.04
    55   1    -0.05   0.04   0.03    -0.09   0.01  -0.06     0.04  -0.05   0.01
    56   1    -0.13   0.03   0.04    -0.16   0.03  -0.10     0.03  -0.04  -0.01
    57   1    -0.17  -0.01   0.02    -0.16   0.03  -0.10    -0.03  -0.00  -0.05
    58   1    -0.13  -0.05  -0.00    -0.09  -0.00  -0.05    -0.08   0.02  -0.07
    59   1    -0.06  -0.05  -0.02    -0.02  -0.02  -0.01    -0.06   0.01  -0.05
    60   1    -0.06  -0.00   0.03    -0.07   0.03   0.03     0.09   0.05  -0.08
    61   1    -0.06   0.01   0.06    -0.05   0.07   0.08     0.10   0.06  -0.08
    62   1    -0.01   0.03   0.06     0.03   0.08   0.10     0.00  -0.01  -0.01
    63   1     0.05   0.03   0.03     0.10   0.05   0.08    -0.10  -0.08   0.05
    64   1     0.06   0.02   0.00     0.09   0.01   0.03    -0.10  -0.09   0.05
    65   1     0.08  -0.03  -0.06     0.02  -0.15  -0.01     0.03   0.29  -0.03
    66   1     0.15   0.00  -0.04     0.03  -0.21  -0.01     0.06   0.42  -0.02
    67   1     0.17   0.06   0.03     0.03  -0.15  -0.00     0.08   0.22   0.01
    68   1     0.12   0.09   0.09     0.02  -0.01   0.01     0.06  -0.11   0.02
    69   1     0.05   0.06   0.08     0.01   0.05   0.01     0.02  -0.23   0.00
                      4                      5                      6
                      A                      A                      A
 Frequencies --     25.6722                28.8836                39.6183
 Red. masses --      7.3525                 4.8617                 4.8171
 Frc consts  --      0.0029                 0.0024                 0.0045
 IR Inten    --      0.7947                 0.4789                 0.5901
  Atom  AN      X      Y      Z        X      Y      Z        X      Y      Z
     1   6     0.00  -0.11   0.05    -0.05  -0.01  -0.03    -0.06   0.01  -0.03
     2   6    -0.02  -0.07   0.03    -0.07  -0.00  -0.02    -0.07   0.01  -0.03
     3   6    -0.07   0.04  -0.04    -0.06  -0.00  -0.00    -0.06   0.00  -0.00
     4   6    -0.09   0.11  -0.10    -0.04  -0.01   0.01    -0.04  -0.01   0.02
     5   6    -0.06   0.07  -0.07    -0.03  -0.01   0.01    -0.03  -0.01   0.01
     6   6    -0.01  -0.04   0.00    -0.03  -0.01  -0.02    -0.04  -0.00  -0.02
     7   6     0.00  -0.07   0.02    -0.02  -0.01  -0.03    -0.03  -0.00  -0.03
     8   8    -0.04   0.12  -0.11     0.02  -0.02   0.03     0.00   0.00   0.01
     9   8     0.16   0.12  -0.08    -0.03  -0.02   0.02    -0.06  -0.02  -0.01
    10  16     0.02   0.09  -0.08    -0.00  -0.02   0.02    -0.02  -0.01  -0.00
    11   7    -0.02  -0.06   0.00    -0.00  -0.01  -0.02    -0.02   0.01  -0.03
    12   8    -0.08   0.14  -0.12    -0.01  -0.02   0.02    -0.01  -0.02   0.02
    13   6     0.09  -0.00   0.06    -0.01   0.06   0.05    -0.01   0.00  -0.03
    14   6     0.14   0.01   0.07     0.04   0.08   0.08     0.03   0.02  -0.06
    15   6     0.15  -0.01   0.08     0.14   0.07   0.07     0.07   0.04  -0.08
    16   6     0.12  -0.05   0.08     0.18   0.04   0.02     0.06   0.04  -0.07
    17   6     0.07  -0.06   0.07     0.13   0.02  -0.01     0.01   0.02  -0.05
    18   8    -0.00  -0.04   0.04    -0.07   0.05  -0.02    -0.06  -0.01  -0.00
    19   6     0.06  -0.04   0.06     0.03   0.04   0.01    -0.02   0.01  -0.03
    20   6     0.03  -0.05   0.04    -0.02   0.03  -0.02    -0.04  -0.00  -0.01
    21   8     0.00  -0.08   0.03    -0.01  -0.02  -0.06    -0.03  -0.01  -0.04
    22   6    -0.00  -0.08   0.03    -0.02  -0.01  -0.04    -0.03  -0.01  -0.03
    23   7    -0.01  -0.06   0.05    -0.02   0.02  -0.02    -0.02   0.01  -0.01
    24   6    -0.02  -0.03   0.03     0.03   0.00  -0.01    -0.00  -0.00   0.02
    25   7     0.00  -0.05   0.04    -0.01   0.02  -0.02    -0.02   0.01   0.00
    26   6     0.02  -0.01  -0.02    -0.02  -0.01  -0.02    -0.01   0.03   0.02
    27   6    -0.06   0.01   0.01    -0.01   0.01  -0.02    -0.01  -0.02   0.01
    28  15    -0.01  -0.02   0.02    -0.01   0.01  -0.02    -0.02   0.01   0.01
    29   6    -0.03  -0.02   0.04     0.13  -0.03   0.06     0.08  -0.03   0.07
    30   6    -0.03  -0.03   0.06     0.18  -0.05   0.08     0.14  -0.05   0.11
    31   6    -0.02  -0.04   0.06     0.13  -0.02   0.05     0.11  -0.04   0.09
    32   6    -0.02  -0.05   0.05     0.02   0.01  -0.02     0.02  -0.01   0.04
    33   6    -0.02  -0.04   0.04    -0.03   0.02  -0.05    -0.03   0.01   0.00
    34   6     0.06   0.01  -0.04    -0.13  -0.08   0.05     0.11   0.13  -0.05
    35   6     0.09   0.02  -0.07    -0.17  -0.10   0.07     0.17   0.18  -0.06
    36   6     0.09   0.02  -0.08    -0.10  -0.06   0.03     0.11   0.13  -0.00
    37   6     0.05   0.01  -0.06     0.01   0.01  -0.04    -0.01   0.03   0.07
    38   6     0.02  -0.00  -0.03     0.04   0.03  -0.06    -0.06  -0.02   0.09
    39   6    -0.09   0.02   0.04    -0.01  -0.04  -0.02    -0.00   0.01   0.01
    40   6    -0.13   0.05   0.03    -0.02  -0.04  -0.02     0.01  -0.05   0.01
    41   6    -0.14   0.06  -0.01    -0.02   0.00  -0.03     0.01  -0.13   0.01
    42   6    -0.11   0.05  -0.03    -0.02   0.05  -0.03     0.01  -0.15   0.02
    43   6    -0.08   0.02  -0.03    -0.01   0.05  -0.03    -0.00  -0.10   0.02
    44   1     0.04  -0.19   0.11    -0.06  -0.01  -0.04    -0.07   0.01  -0.06
    45   1    -0.01  -0.13   0.07    -0.08   0.00  -0.03    -0.09   0.02  -0.04
    46   1    -0.10   0.07  -0.06    -0.07   0.00   0.00    -0.07   0.00   0.00
    47   1    -0.12   0.19  -0.15    -0.04  -0.01   0.03    -0.04  -0.02   0.04
    48   1     0.03  -0.07   0.02    -0.03  -0.01  -0.03    -0.03  -0.01  -0.04
    49   1     0.01  -0.09   0.03     0.01  -0.01  -0.02    -0.01   0.02  -0.04
    50   1     0.08   0.02   0.05    -0.09   0.07   0.06    -0.04  -0.01  -0.02
    51   1     0.16   0.04   0.07     0.01   0.10   0.11     0.03   0.02  -0.06
    52   1     0.18  -0.00   0.09     0.19   0.08   0.09     0.10   0.05  -0.10
    53   1     0.12  -0.07   0.09     0.26   0.03   0.01     0.09   0.06  -0.09
    54   1     0.05  -0.09   0.06     0.16   0.01  -0.04     0.01   0.03  -0.04
    55   1    -0.03  -0.01   0.04     0.18  -0.05   0.09     0.11  -0.04   0.09
    56   1    -0.03  -0.02   0.06     0.27  -0.08   0.13     0.21  -0.07   0.15
    57   1    -0.02  -0.04   0.07     0.17  -0.03   0.07     0.15  -0.05   0.12
    58   1    -0.02  -0.06   0.06    -0.02   0.03  -0.05     0.00   0.00   0.02
    59   1    -0.02  -0.05   0.03    -0.10   0.05  -0.09    -0.08   0.03  -0.03
    60   1     0.07   0.00  -0.03    -0.19  -0.11   0.08     0.16   0.17  -0.10
    61   1     0.12   0.03  -0.09    -0.25  -0.15   0.12     0.26   0.26  -0.13
    62   1     0.12   0.04  -0.10    -0.13  -0.08   0.04     0.16   0.17  -0.01
    63   1     0.05   0.02  -0.07     0.06   0.04  -0.07    -0.05  -0.01   0.12
    64   1    -0.01  -0.01  -0.02     0.13   0.08  -0.11    -0.15  -0.10   0.15
    65   1    -0.08   0.01   0.06    -0.01  -0.07  -0.02    -0.01   0.07   0.01
    66   1    -0.15   0.07   0.05    -0.02  -0.07  -0.02     0.01  -0.03   0.00
    67   1    -0.17   0.09  -0.01    -0.03   0.00  -0.03     0.02  -0.18   0.01
    68   1    -0.12   0.06  -0.06    -0.02   0.08  -0.03     0.01  -0.22   0.02
    69   1    -0.06   0.00  -0.05    -0.01   0.08  -0.03    -0.01  -0.12   0.02
                      7                      8                      9
                      A                      A                      A
 Frequencies --     41.1030                46.6501                54.4192
 Red. masses --      4.5012                 3.9567                 4.5646
 Frc consts  --      0.0045                 0.0051                 0.0080
 IR Inten    --      0.0659                 0.1066                 0.3463
  Atom  AN      X      Y      Z        X      Y      Z        X      Y      Z
     1   6     0.03  -0.02   0.04    -0.02   0.00  -0.02    -0.04  -0.06   0.01
     2   6     0.04  -0.02   0.04    -0.02   0.00  -0.01    -0.06  -0.04  -0.00
     3   6     0.03  -0.01   0.02    -0.02  -0.00  -0.00    -0.07  -0.00  -0.02
     4   6     0.02  -0.00   0.00    -0.01  -0.01   0.00    -0.07   0.01  -0.03
     5   6     0.01   0.00   0.00    -0.01  -0.01  -0.00    -0.05  -0.01  -0.02
     6   6     0.02  -0.00   0.02    -0.01  -0.00  -0.01    -0.04  -0.04  -0.00
     7   6     0.01  -0.00   0.03    -0.01  -0.00  -0.02    -0.03  -0.04  -0.00
     8   8    -0.02   0.02  -0.01     0.01  -0.00  -0.00    -0.02  -0.03   0.01
     9   8     0.03   0.02  -0.01    -0.02  -0.01  -0.01     0.01   0.01   0.02
    10  16     0.00   0.01  -0.00    -0.00  -0.00  -0.00    -0.01  -0.02   0.00
    11   7    -0.00  -0.00   0.02    -0.00   0.01  -0.02    -0.02  -0.06   0.00
    12   8    -0.01   0.02  -0.01     0.00  -0.01   0.01    -0.05   0.01  -0.03
    13   6    -0.04  -0.06  -0.02    -0.09  -0.01   0.06     0.07   0.02  -0.04
    14   6    -0.03  -0.05  -0.06    -0.07   0.00   0.08     0.07   0.02  -0.05
    15   6     0.06   0.01  -0.12     0.07   0.03   0.03    -0.02  -0.01  -0.02
    16   6     0.13   0.07  -0.13     0.17   0.05  -0.02    -0.09  -0.03   0.02
    17   6     0.11   0.05  -0.08     0.13   0.04  -0.03    -0.08  -0.03   0.02
    18   8     0.01  -0.04   0.02    -0.03   0.01   0.00     0.00  -0.00  -0.01
    19   6     0.02  -0.01  -0.03     0.01   0.01   0.01    -0.01  -0.01  -0.01
    20   6     0.02  -0.01   0.01    -0.01   0.01  -0.00    -0.01  -0.01  -0.01
    21   8     0.01  -0.02   0.01    -0.01  -0.00  -0.02    -0.01  -0.02   0.00
    22   6     0.01  -0.00   0.03    -0.00   0.00  -0.02    -0.02  -0.03  -0.01
    23   7     0.01   0.01   0.05    -0.00   0.01   0.00    -0.03  -0.02  -0.02
    24   6     0.01  -0.00  -0.02     0.00   0.02   0.01     0.01   0.00  -0.04
    25   7     0.01   0.01   0.03    -0.00   0.02   0.00    -0.02  -0.01  -0.01
    26   6     0.00  -0.00   0.03    -0.01  -0.00  -0.01    -0.02   0.02   0.02
    27   6    -0.01  -0.02   0.00     0.00   0.01   0.01     0.00  -0.01  -0.01
    28  15     0.01  -0.01   0.01    -0.00   0.02   0.01    -0.02  -0.00  -0.01
    29   6     0.01  -0.01  -0.04    -0.13   0.06  -0.08    -0.07   0.01  -0.11
    30   6    -0.01   0.00  -0.07    -0.13   0.06  -0.07     0.02  -0.00  -0.09
    31   6    -0.02   0.02  -0.08     0.02   0.01   0.03     0.19  -0.02   0.01
    32   6    -0.01   0.03  -0.06     0.15  -0.03   0.11     0.25  -0.02   0.08
    33   6     0.01   0.02  -0.03     0.14  -0.03   0.10     0.15  -0.01   0.06
    34   6    -0.04   0.00   0.05     0.06   0.00  -0.04    -0.08   0.03   0.05
    35   6    -0.08  -0.00   0.10     0.04  -0.03  -0.06    -0.07   0.06   0.08
    36   6    -0.07  -0.01   0.12    -0.05  -0.07  -0.05     0.00   0.08   0.09
    37   6    -0.02  -0.02   0.10    -0.12  -0.07  -0.02     0.07   0.07   0.06
    38   6     0.01  -0.02   0.06    -0.10  -0.03   0.00     0.06   0.04   0.03
    39   6    -0.04   0.15   0.04     0.01  -0.02  -0.00     0.01   0.04  -0.02
    40   6    -0.08   0.17   0.03     0.03  -0.04  -0.00     0.03   0.08  -0.01
    41   6    -0.09   0.02  -0.01     0.03  -0.03   0.01     0.04   0.07   0.00
    42   6    -0.06  -0.14  -0.05     0.02   0.00   0.02     0.03   0.02   0.01
    43   6    -0.02  -0.16  -0.04     0.01   0.02   0.02     0.01  -0.02   0.01
    44   1     0.04  -0.02   0.05    -0.02   0.00  -0.02    -0.03  -0.08   0.02
    45   1     0.05  -0.03   0.05    -0.03   0.00  -0.02    -0.06  -0.05   0.01
    46   1     0.04  -0.02   0.02    -0.02  -0.00   0.00    -0.08   0.01  -0.03
    47   1     0.01   0.00  -0.01    -0.01  -0.01   0.01    -0.08   0.04  -0.04
    48   1     0.01  -0.00   0.03    -0.01  -0.00  -0.02    -0.04  -0.04   0.00
    49   1    -0.01  -0.01   0.03     0.00   0.01  -0.02    -0.01  -0.08   0.02
    50   1    -0.11  -0.11   0.03    -0.19  -0.03   0.09     0.13   0.04  -0.07
    51   1    -0.08  -0.10  -0.05    -0.15  -0.01   0.12     0.13   0.04  -0.08
    52   1     0.08   0.02  -0.15     0.09   0.04   0.04    -0.02  -0.01  -0.02
    53   1     0.20   0.12  -0.17     0.27   0.07  -0.05    -0.16  -0.05   0.04
    54   1     0.16   0.10  -0.09     0.21   0.05  -0.07    -0.15  -0.05   0.05
    55   1     0.01  -0.03  -0.03    -0.24   0.09  -0.15    -0.18   0.02  -0.18
    56   1    -0.02  -0.00  -0.09    -0.23   0.09  -0.14    -0.03  -0.00  -0.15
    57   1    -0.03   0.04  -0.11     0.03   0.01   0.03     0.27  -0.03   0.03
    58   1    -0.02   0.05  -0.07     0.26  -0.07   0.18     0.38  -0.03   0.16
    59   1     0.01   0.02  -0.01     0.21  -0.05   0.15     0.19  -0.01   0.10
    60   1    -0.05   0.01   0.03     0.14   0.03  -0.05    -0.14   0.02   0.05
    61   1    -0.12   0.00   0.11     0.10  -0.03  -0.09    -0.13   0.07   0.10
    62   1    -0.10  -0.02   0.16    -0.07  -0.10  -0.06     0.01   0.11   0.11
    63   1    -0.01  -0.03   0.13    -0.20  -0.10  -0.00     0.13   0.09   0.07
    64   1     0.05  -0.02   0.05    -0.16  -0.03   0.03     0.11   0.03   0.01
    65   1    -0.04   0.25   0.07     0.01  -0.02  -0.01     0.01   0.04  -0.03
    66   1    -0.10   0.30   0.06     0.03  -0.06  -0.01     0.04   0.11  -0.02
    67   1    -0.11   0.04  -0.02     0.04  -0.05   0.01     0.05   0.10   0.01
    68   1    -0.06  -0.25  -0.08     0.02   0.01   0.03     0.03   0.01   0.03
    69   1     0.00  -0.28  -0.07    -0.00   0.05   0.03     0.00  -0.04   0.02
                     10                     11                     12
                      A                      A                      A
 Frequencies --     56.4210                58.2188                68.1821
 Red. masses --      4.8402                 5.9607                 5.2491
 Frc consts  --      0.0091                 0.0119                 0.0144
 IR Inten    --      0.2506                 0.7009                 1.3811
  Atom  AN      X      Y      Z        X      Y      Z        X      Y      Z
     1   6    -0.02   0.09  -0.04     0.04  -0.11   0.11    -0.04   0.04  -0.00
     2   6    -0.01   0.08  -0.03     0.06  -0.11   0.10    -0.04   0.06  -0.02
     3   6     0.01   0.02   0.01     0.02  -0.04   0.01    -0.04   0.04  -0.02
     4   6     0.03  -0.02   0.04    -0.04   0.03  -0.07    -0.02   0.01   0.01
     5   6     0.02  -0.01   0.03    -0.06   0.03  -0.05    -0.02  -0.01   0.03
     6   6    -0.01   0.04  -0.00    -0.02  -0.03   0.04    -0.02   0.00   0.02
     7   6    -0.00   0.05  -0.01    -0.05  -0.03   0.06    -0.02   0.00   0.03
     8   8    -0.02   0.06  -0.02    -0.09  -0.09   0.03    -0.06   0.05  -0.03
     9   8    -0.09  -0.05  -0.07     0.07   0.11   0.12    -0.06  -0.06  -0.06
    10  16    -0.03   0.02  -0.02    -0.04  -0.01   0.04    -0.05   0.00  -0.02
    11   7    -0.01   0.09  -0.02    -0.06  -0.12   0.08    -0.04   0.04   0.01
    12   8     0.03  -0.03   0.06    -0.12   0.07  -0.11    -0.01  -0.03   0.05
    13   6     0.15   0.08  -0.04     0.04   0.04  -0.03    -0.04  -0.05   0.02
    14   6     0.25   0.12  -0.07     0.07   0.06  -0.06    -0.01  -0.03  -0.02
    15   6     0.18   0.08  -0.03     0.07   0.07  -0.06     0.05   0.01  -0.06
    16   6     0.01   0.01   0.03     0.02   0.06  -0.04     0.07   0.04  -0.05
    17   6    -0.08  -0.03   0.05    -0.02   0.04  -0.00     0.03   0.03  -0.01
    18   8    -0.07  -0.00   0.02     0.01   0.04   0.00    -0.00  -0.02   0.04
    19   6    -0.01   0.01   0.02    -0.01   0.04  -0.00    -0.02  -0.02   0.02
    20   6    -0.05  -0.00   0.02    -0.02   0.03   0.01    -0.01  -0.02   0.05
    21   8    -0.03   0.01  -0.01     0.01   0.03   0.05    -0.04  -0.01   0.05
    22   6    -0.01   0.03   0.00    -0.03   0.02   0.04    -0.03  -0.01   0.05
    23   7    -0.00   0.02   0.02    -0.05   0.02   0.00    -0.02  -0.02   0.05
    24   6    -0.00  -0.03   0.02     0.00   0.01  -0.01     0.03  -0.04  -0.03
    25   7    -0.02  -0.00   0.02    -0.03   0.03  -0.01    -0.02  -0.02   0.05
    26   6    -0.02  -0.05   0.01    -0.04  -0.02  -0.01    -0.00  -0.06   0.03
    27   6     0.01  -0.02   0.03     0.04   0.00   0.01    -0.00  -0.07   0.04
    28  15    -0.00  -0.03   0.02    -0.02   0.01   0.00    -0.01  -0.07   0.03
    29   6    -0.06  -0.01  -0.02     0.04  -0.01  -0.00     0.06  -0.09  -0.07
    30   6    -0.09  -0.00  -0.04     0.04   0.00  -0.03     0.07  -0.06  -0.14
    31   6    -0.07  -0.01  -0.02    -0.00   0.04  -0.06     0.04   0.02  -0.17
    32   6    -0.01  -0.02   0.02    -0.04   0.06  -0.07     0.02   0.06  -0.13
    33   6     0.02  -0.03   0.04    -0.04   0.05  -0.04     0.02   0.03  -0.05
    34   6    -0.03  -0.09   0.03     0.01  -0.04  -0.03     0.04  -0.02   0.00
    35   6    -0.02  -0.10  -0.00     0.01  -0.06  -0.07     0.09   0.01  -0.02
    36   6     0.02  -0.06  -0.05    -0.04  -0.06  -0.08     0.10   0.01  -0.01
    37   6     0.03  -0.03  -0.06    -0.09  -0.05  -0.06     0.05  -0.03   0.02
    38   6     0.01  -0.02  -0.03    -0.09  -0.03  -0.03     0.00  -0.06   0.04
    39   6     0.01   0.05   0.02     0.08   0.02  -0.03     0.01  -0.11   0.02
    40   6     0.02   0.04   0.03     0.14  -0.00  -0.02     0.03   0.02   0.03
    41   6     0.02  -0.04   0.03     0.17  -0.04   0.04     0.03   0.20   0.06
    42   6     0.02  -0.11   0.03     0.12  -0.05   0.09     0.02   0.22   0.08
    43   6     0.01  -0.10   0.03     0.06  -0.03   0.07    -0.00   0.08   0.06
    44   1    -0.04   0.13  -0.07     0.07  -0.15   0.18    -0.04   0.05  -0.01
    45   1    -0.02   0.11  -0.06     0.11  -0.17   0.16    -0.05   0.08  -0.04
    46   1     0.02   0.01   0.01     0.03  -0.04  -0.00    -0.04   0.05  -0.03
    47   1     0.04  -0.06   0.07    -0.07   0.08  -0.14    -0.02  -0.00   0.01
    48   1     0.02   0.03  -0.03    -0.09  -0.00   0.10     0.00  -0.01   0.01
    49   1    -0.03   0.13  -0.06    -0.05  -0.18   0.15    -0.06   0.07  -0.02
    50   1     0.20   0.12  -0.08     0.05   0.04  -0.03    -0.08  -0.08   0.05
    51   1     0.38   0.18  -0.12     0.12   0.07  -0.08    -0.03  -0.06  -0.02
    52   1     0.26   0.11  -0.06     0.10   0.08  -0.09     0.08   0.03  -0.09
    53   1    -0.05  -0.03   0.06     0.01   0.07  -0.04     0.11   0.08  -0.09
    54   1    -0.21  -0.08   0.10    -0.06   0.04   0.01     0.05   0.05  -0.01
    55   1    -0.08  -0.01  -0.03     0.08  -0.04   0.02     0.07  -0.14  -0.05
    56   1    -0.14   0.01  -0.07     0.07  -0.02  -0.02     0.09  -0.09  -0.17
    57   1    -0.09   0.00  -0.04    -0.01   0.05  -0.08     0.05   0.04  -0.22
    58   1     0.01  -0.03   0.03    -0.08   0.09  -0.10     0.00   0.12  -0.15
    59   1     0.05  -0.04   0.06    -0.06   0.07  -0.04    -0.01   0.06  -0.02
    60   1    -0.05  -0.11   0.06     0.04  -0.03  -0.02     0.04  -0.02  -0.00
    61   1    -0.03  -0.12   0.01     0.05  -0.07  -0.08     0.13   0.04  -0.04
    62   1     0.03  -0.06  -0.08    -0.03  -0.08  -0.11     0.14   0.04  -0.03
    63   1     0.05  -0.00  -0.10    -0.13  -0.06  -0.07     0.05  -0.03   0.02
    64   1     0.01   0.00  -0.04    -0.13  -0.02  -0.01    -0.03  -0.09   0.06
    65   1     0.01   0.11   0.02     0.06   0.04  -0.08     0.01  -0.22   0.00
    66   1     0.02   0.10   0.02     0.18   0.00  -0.06     0.04  -0.01   0.02
    67   1     0.03  -0.05   0.03     0.21  -0.06   0.05     0.04   0.32   0.07
    68   1     0.02  -0.17   0.03     0.14  -0.07   0.13     0.02   0.36   0.10
    69   1     0.01  -0.15   0.03     0.02  -0.04   0.11    -0.01   0.11   0.08
                     13                     14                     15
                      A                      A                      A
 Frequencies --     76.4965                77.3135                88.6848
 Red. masses --      5.4827                 4.6581                 7.7884
 Frc consts  --      0.0189                 0.0164                 0.0361
 IR Inten    --      0.2751                 1.2570                 1.5939
  Atom  AN      X      Y      Z        X      Y      Z        X      Y      Z
     1   6     0.08   0.06   0.03     0.03   0.04   0.03     0.02   0.07   0.08
     2   6     0.14  -0.01   0.07     0.07   0.00   0.05     0.01   0.13  -0.00
     3   6     0.15  -0.06   0.07     0.08  -0.03   0.04     0.01   0.11  -0.04
     4   6     0.10  -0.03   0.03     0.04  -0.02   0.01     0.00   0.04   0.01
     5   6     0.04   0.04  -0.01     0.00   0.02  -0.00     0.00  -0.02   0.08
     6   6     0.03   0.08  -0.01    -0.00   0.05   0.01     0.01  -0.00   0.12
     7   6     0.00   0.09   0.01    -0.02   0.05   0.03    -0.01  -0.01   0.15
     8   8    -0.01  -0.04   0.04    -0.06  -0.01   0.01    -0.16   0.15  -0.09
     9   8    -0.01   0.09   0.08    -0.04   0.04   0.03     0.02  -0.12  -0.15
    10  16    -0.00   0.03   0.03    -0.05   0.02   0.01    -0.06   0.00  -0.02
    11   7    -0.00   0.04   0.01    -0.04   0.03   0.02    -0.06   0.02   0.12
    12   8    -0.00   0.06  -0.05    -0.03   0.03  -0.02    -0.00  -0.06   0.10
    13   6     0.00   0.03  -0.02    -0.12  -0.01   0.04     0.04  -0.04   0.01
    14   6     0.08   0.05  -0.00    -0.12  -0.02   0.08     0.02  -0.04   0.02
    15   6     0.10   0.02   0.01    -0.03  -0.01   0.06     0.04  -0.04   0.01
    16   6     0.04  -0.04   0.01     0.07  -0.00   0.00     0.06  -0.03   0.01
    17   6    -0.03  -0.06  -0.00     0.07  -0.00  -0.03     0.07  -0.03   0.00
    18   8    -0.09  -0.02  -0.04    -0.04  -0.00  -0.03     0.19  -0.00  -0.03
    19   6    -0.05  -0.03  -0.02    -0.03  -0.01  -0.01     0.06  -0.03   0.00
    20   6    -0.08  -0.03  -0.04    -0.04  -0.01  -0.03     0.09  -0.02  -0.00
    21   8    -0.03   0.00  -0.07    -0.03   0.01  -0.02     0.05   0.01   0.15
    22   6    -0.01   0.06  -0.02    -0.03   0.04   0.01    -0.00  -0.01   0.13
    23   7     0.00   0.03  -0.01    -0.02   0.03   0.01    -0.04  -0.05   0.02
    24   6    -0.03  -0.06  -0.04    -0.02  -0.04  -0.01    -0.07   0.00  -0.06
    25   7    -0.03  -0.04  -0.05    -0.04  -0.02  -0.03    -0.01  -0.05  -0.05
    26   6    -0.02  -0.02  -0.01    -0.01  -0.03  -0.01    -0.02   0.04  -0.07
    27   6    -0.02  -0.05  -0.05     0.01  -0.03  -0.01    -0.00   0.01  -0.08
    28  15    -0.02  -0.05  -0.05    -0.02  -0.04  -0.01    -0.04   0.01  -0.08
    29   6    -0.03  -0.04  -0.02    -0.04  -0.03  -0.01    -0.04   0.01   0.00
    30   6    -0.01  -0.06   0.02    -0.03  -0.04  -0.00     0.02  -0.03   0.09
    31   6     0.00  -0.10   0.04    -0.00  -0.05   0.02     0.03  -0.07   0.11
    32   6     0.00  -0.11   0.02     0.01  -0.06   0.02    -0.01  -0.08   0.04
    33   6    -0.02  -0.09  -0.03    -0.00  -0.05   0.01    -0.07  -0.04  -0.05
    34   6     0.01   0.07  -0.04    -0.07  -0.05   0.02    -0.05   0.07  -0.07
    35   6    -0.01   0.09   0.02     0.02   0.01  -0.02    -0.09   0.06  -0.01
    36   6    -0.06   0.03   0.11     0.17   0.10  -0.09    -0.11   0.03   0.04
    37   6    -0.08  -0.05   0.14     0.22   0.11  -0.12    -0.08   0.01   0.03
    38   6    -0.06  -0.08   0.08     0.13   0.05  -0.08    -0.03   0.02  -0.03
    39   6    -0.01  -0.08  -0.05     0.02   0.03  -0.02     0.04   0.02  -0.12
    40   6    -0.02  -0.01  -0.05     0.05   0.04  -0.02     0.10   0.00  -0.11
    41   6    -0.02   0.11  -0.04     0.06  -0.02   0.00     0.12  -0.02  -0.05
    42   6    -0.02   0.13  -0.04     0.04  -0.08   0.02     0.08  -0.03  -0.01
    43   6    -0.02   0.05  -0.04     0.02  -0.08   0.01     0.02  -0.01  -0.02
    44   1     0.08   0.09   0.04     0.03   0.06   0.05     0.02   0.09   0.10
    45   1     0.18  -0.03   0.10     0.10  -0.00   0.07     0.02   0.20  -0.04
    46   1     0.20  -0.12   0.11     0.11  -0.06   0.06     0.01   0.16  -0.11
    47   1     0.11  -0.07   0.02     0.04  -0.04   0.01    -0.01   0.03  -0.03
    48   1     0.00   0.11   0.03    -0.02   0.06   0.04     0.01  -0.02   0.14
    49   1    -0.01   0.02   0.04    -0.06   0.03   0.04    -0.10   0.08   0.09
    50   1    -0.01   0.06  -0.04    -0.20  -0.02   0.06     0.04  -0.04   0.01
    51   1     0.13   0.10  -0.00    -0.20  -0.03   0.13     0.01  -0.05   0.03
    52   1     0.17   0.04   0.02    -0.03  -0.02   0.09     0.03  -0.04   0.02
    53   1     0.06  -0.07   0.03     0.15   0.00  -0.02     0.07  -0.03   0.00
    54   1    -0.08  -0.11  -0.00     0.14   0.01  -0.08     0.09  -0.02  -0.01
    55   1    -0.04  -0.02  -0.03    -0.06  -0.02  -0.03    -0.04   0.05  -0.01
    56   1    -0.01  -0.05   0.04    -0.05  -0.03  -0.01     0.05  -0.02   0.14
    57   1     0.02  -0.11   0.08     0.01  -0.06   0.03     0.09  -0.11   0.17
    58   1     0.01  -0.14   0.03     0.04  -0.07   0.04    -0.00  -0.12   0.05
    59   1    -0.02  -0.10  -0.05     0.01  -0.05   0.01    -0.07  -0.06  -0.08
    60   1     0.04   0.12  -0.11    -0.18  -0.11   0.07    -0.05   0.08  -0.10
    61   1     0.01   0.16  -0.01    -0.03  -0.00   0.00    -0.11   0.08  -0.01
    62   1    -0.07   0.04   0.16     0.26   0.15  -0.14    -0.15   0.02   0.08
    63   1    -0.11  -0.10   0.22     0.35   0.18  -0.18    -0.09  -0.02   0.07
    64   1    -0.08  -0.14   0.10     0.18   0.06  -0.10    -0.02  -0.00  -0.03
    65   1    -0.01  -0.15  -0.06     0.02   0.07  -0.04     0.02   0.03  -0.16
    66   1    -0.01  -0.03  -0.05     0.06   0.09  -0.03     0.14   0.00  -0.15
    67   1    -0.02   0.17  -0.04     0.07  -0.02   0.01     0.17  -0.04  -0.05
    68   1    -0.02   0.21  -0.03     0.05  -0.12   0.03     0.10  -0.04   0.04
    69   1    -0.02   0.07  -0.04     0.01  -0.11   0.02    -0.01  -0.01   0.01
                     16                     17                     18
                      A                      A                      A
 Frequencies --    111.0086               130.0243               132.4217
 Red. masses --      6.5628                 7.3823                 7.5731
 Frc consts  --      0.0476                 0.0735                 0.0782
 IR Inten    --     10.3010                 6.0665                 0.2404
  Atom  AN      X      Y      Z        X      Y      Z        X      Y      Z
     1   6    -0.00  -0.10   0.01    -0.04   0.13  -0.10     0.01  -0.05   0.12
     2   6    -0.05  -0.06  -0.01    -0.02   0.10  -0.08    -0.01   0.01   0.05
     3   6    -0.08   0.03  -0.05     0.05  -0.06   0.05    -0.06   0.08  -0.04
     4   6    -0.06   0.05  -0.05     0.07  -0.13   0.10    -0.06   0.06  -0.03
     5   6    -0.01  -0.01  -0.02     0.03  -0.05   0.04    -0.04  -0.02   0.05
     6   6     0.01  -0.07  -0.00    -0.01   0.02  -0.02    -0.01  -0.05   0.10
     7   6     0.01  -0.03  -0.04     0.00  -0.03   0.05    -0.04  -0.01   0.09
     8   8     0.05  -0.04   0.02     0.00   0.08  -0.07    -0.14   0.06  -0.05
     9   8    -0.04  -0.02   0.01     0.40  -0.05  -0.07     0.09  -0.11  -0.08
    10  16     0.01  -0.02  -0.00     0.12  -0.04   0.00    -0.04  -0.05   0.01
    11   7     0.02   0.00  -0.04     0.06  -0.22   0.12    -0.04  -0.08   0.12
    12   8     0.01  -0.02  -0.00     0.01  -0.00   0.00    -0.04  -0.06   0.07
    13   6    -0.06   0.06   0.05    -0.08   0.02   0.03     0.02   0.10  -0.07
    14   6    -0.04   0.08  -0.02    -0.04   0.04  -0.02    -0.04   0.07   0.02
    15   6    -0.01   0.15  -0.06    -0.00   0.08  -0.04    -0.09  -0.00   0.07
    16   6    -0.02   0.19  -0.03    -0.03   0.09  -0.02    -0.05  -0.03   0.02
    17   6    -0.05   0.16   0.04    -0.07   0.06   0.02     0.01  -0.00  -0.07
    18   8     0.05   0.11   0.07    -0.13   0.04   0.04    -0.18  -0.00  -0.04
    19   6    -0.06   0.10   0.08    -0.08   0.03   0.04     0.03   0.05  -0.10
    20   6    -0.03   0.10   0.09    -0.12   0.02   0.04    -0.07   0.02  -0.09
    21   8     0.04   0.17   0.16     0.01   0.01   0.01     0.05  -0.07  -0.20
    22   6     0.02   0.04  -0.00    -0.01  -0.01  -0.03     0.01   0.08  -0.01
    23   7     0.02  -0.04  -0.08    -0.02  -0.02  -0.03     0.01   0.22   0.10
    24   6     0.04  -0.06  -0.03    -0.04  -0.01  -0.01     0.13  -0.01   0.01
    25   7     0.02   0.02   0.02    -0.03  -0.00   0.01     0.01   0.13  -0.02
    26   6     0.03  -0.06  -0.02    -0.05  -0.01   0.01     0.04  -0.05   0.01
    27   6     0.02  -0.07  -0.05    -0.03  -0.02   0.00     0.09  -0.01  -0.01
[...]
 Vib (Bot)    2  0.999444D+01          0.999759          2.302029
 Vib (Bot)    3  0.757286D+01          0.879260          2.024571
 Vib (Bot)    4  0.711853D+01          0.852391          1.962702
 Vib (Bot)    5  0.632568D+01          0.801107          1.844617
 Vib (Bot)    6  0.460750D+01          0.663466          1.527686
 Vib (Bot)    7  0.444041D+01          0.647423          1.490747
 Vib (Bot)    8  0.391003D+01          0.592180          1.363545
 Vib (Bot)    9  0.334855D+01          0.524857          1.208529
 Vib (Bot)   10  0.322885D+01          0.509048          1.172127
 Vib (Bot)   11  0.312835D+01          0.495315          1.140504
 Vib (Bot)   12  0.266703D+01          0.426028          0.980965
 Vib (Bot)   13  0.237360D+01          0.375407          0.864407
 Vib (Bot)   14  0.234815D+01          0.370726          0.853628
 Vib (Bot)   15  0.204228D+01          0.310114          0.714064
 Vib (Bot)   16  0.162259D+01          0.210208          0.484021
 Vib (Bot)   17  0.137746D+01          0.139078          0.320239
 Vib (Bot)   18  0.135147D+01          0.130806          0.301192
 Vib (Bot)   19  0.122307D+01          0.087451          0.201363
 Vib (Bot)   20  0.119039D+01          0.075690          0.174282
 Vib (Bot)   21  0.919639D+00         -0.036382         -0.083774
 Vib (Bot)   22  0.877102D+00         -0.056950         -0.131132
 Vib (Bot)   23  0.788284D+00         -0.103317         -0.237897
 Vib (Bot)   24  0.736382D+00         -0.132897         -0.306007
 Vib (Bot)   25  0.693078D+00         -0.159218         -0.366612
 Vib (Bot)   26  0.666966D+00         -0.175896         -0.405015
 Vib (Bot)   27  0.658378D+00         -0.181525         -0.417976
 Vib (Bot)   28  0.640433D+00         -0.193526         -0.445610
 Vib (Bot)   29  0.622554D+00         -0.205823         -0.473926
 Vib (Bot)   30  0.604576D+00         -0.218549         -0.503227
 Vib (Bot)   31  0.580583D+00         -0.236136         -0.543722
 Vib (Bot)   32  0.526962D+00         -0.278221         -0.640627
 Vib (Bot)   33  0.492442D+00         -0.307645         -0.708378
 Vib (Bot)   34  0.456021D+00         -0.341015         -0.785217
 Vib (Bot)   35  0.438672D+00         -0.357860         -0.824004
 Vib (Bot)   36  0.416173D+00         -0.380726         -0.876654
 Vib (Bot)   37  0.371672D+00         -0.429841         -0.989744
 Vib (Bot)   38  0.363371D+00         -0.439650         -1.012332
 Vib (Bot)   39  0.359119D+00         -0.444762         -1.024102
 Vib (Bot)   40  0.354370D+00         -0.450543         -1.037414
 Vib (Bot)   41  0.345637D+00         -0.461380         -1.062367
 Vib (Bot)   42  0.336950D+00         -0.472434         -1.087820
 Vib (Bot)   43  0.316993D+00         -0.498950         -1.148876
 Vib (Bot)   44  0.313045D+00         -0.504394         -1.161409
 Vib (Bot)   45  0.302009D+00         -0.519980         -1.197299
 Vib (Bot)   46  0.295077D+00         -0.530065         -1.220519
 Vib (Bot)   47  0.283192D+00         -0.547919         -1.261629
 Vib (Bot)   48  0.278269D+00         -0.555536         -1.279168
 Vib (Bot)   49  0.269889D+00         -0.568815         -1.309744
 Vib (Bot)   50  0.261056D+00         -0.583267         -1.343022
 Vib (Bot)   51  0.250063D+00         -0.601951         -1.386043
 Vib (Bot)   52  0.243063D+00         -0.614281         -1.414434
 Vib (Bot)   53  0.237419D+00         -0.624484         -1.437928
 Vib (V=0)       0.674208D+15         14.828794         34.144560
 Vib (V=0)    1  0.181786D+02          1.259561          2.900245
 Vib (V=0)    2  0.105069D+02          1.021476          2.352036
 Vib (V=0)    3  0.808935D+01          0.907914          2.090548
 Vib (V=0)    4  0.763607D+01          0.882870          2.032883
 Vib (V=0)    5  0.684541D+01          0.835399          1.923578
 Vib (V=0)    6  0.513455D+01          0.710503          1.635993
 Vib (V=0)    7  0.496847D+01          0.696223          1.603113
 Vib (V=0)    8  0.444187D+01          0.647566          1.491076
 Vib (V=0)    9  0.388568D+01          0.589467          1.357297
 Vib (V=0)   10  0.376734D+01          0.576034          1.326368
 Vib (V=0)   11  0.366805D+01          0.564435          1.299660
 Vib (V=0)   12  0.321349D+01          0.506977          1.167358
 Vib (V=0)   13  0.292569D+01          0.466228          1.073530
 Vib (V=0)   14  0.290079D+01          0.462517          1.064984
 Vib (V=0)   15  0.260259D+01          0.415406          0.956507
 Vib (V=0)   16  0.219788D+01          0.342003          0.787492
 Vib (V=0)   17  0.196540D+01          0.293450          0.675694
 Vib (V=0)   18  0.194100D+01          0.288024          0.663201
 Vib (V=0)   19  0.182132D+01          0.260387          0.599564
 Vib (V=0)   20  0.179114D+01          0.253129          0.582850
 Vib (V=0)   21  0.154677D+01          0.189427          0.436172
 Vib (V=0)   22  0.150961D+01          0.178864          0.411850
 Vib (V=0)   23  0.143348D+01          0.156393          0.360107
 Vib (V=0)   24  0.139009D+01          0.143043          0.329368
 Vib (V=0)   25  0.135461D+01          0.131814          0.303513
 Vib (V=0)   26  0.133357D+01          0.125017          0.287862
 Vib (V=0)   27  0.132672D+01          0.122778          0.282708
 Vib (V=0)   28  0.131250D+01          0.118099          0.271933
 Vib (V=0)   29  0.129848D+01          0.113436          0.261196
 Vib (V=0)   30  0.128455D+01          0.108750          0.250405
 Vib (V=0)   31  0.126621D+01          0.102505          0.236028
 Vib (V=0)   32  0.122642D+01          0.088640          0.204101
 Vib (V=0)   33  0.120178D+01          0.079826          0.183806
 Vib (V=0)   34  0.117672D+01          0.070674          0.162734
 Vib (V=0)   35  0.116516D+01          0.066384          0.152855
 Vib (V=0)   36  0.115054D+01          0.060901          0.140230
 Vib (V=0)   37  0.112301D+01          0.050383          0.116011
 Vib (V=0)   38  0.111809D+01          0.048478          0.111624
 Vib (V=0)   39  0.111560D+01          0.047509          0.109395
 Vib (V=0)   40  0.111284D+01          0.046434          0.106919
 Vib (V=0)   41  0.110784D+01          0.044475          0.102409
 Vib (V=0)   42  0.110294D+01          0.042551          0.097978
 Vib (V=0)   43  0.109202D+01          0.038230          0.088027
 Vib (V=0)   44  0.108991D+01          0.037392          0.086098
 Vib (V=0)   45  0.108413D+01          0.035082          0.080779
 Vib (V=0)   46  0.108058D+01          0.033656          0.077496
 Vib (V=0)   47  0.107463D+01          0.031258          0.071975
 Vib (V=0)   48  0.107222D+01          0.030283          0.069729
 Vib (V=0)   49  0.106819D+01          0.028649          0.065966
 Vib (V=0)   50  0.106405D+01          0.026961          0.062080
 Vib (V=0)   51  0.105905D+01          0.024914          0.057368
 Vib (V=0)   52  0.105595D+01          0.023643          0.054440
 Vib (V=0)   53  0.105351D+01          0.022637          0.052123
 Electronic      0.100000D+01          0.000000          0.000000
 Translational   0.430330D+09          8.633801         19.880062
 Rotational      0.416011D+08          7.619104         17.543636
 ***** Axes restored to original set *****
 -------------------------------------------------------------------
 Center     Atomic                   Forces (Hartrees/Bohr)
 Number     Number              X              Y              Z
 -------------------------------------------------------------------
      1        6          -0.000002037   -0.000000770    0.000002634
      2        6          -0.000004922    0.000000151    0.000002821
      3        6           0.000002687   -0.000003135    0.000000671
      4        6          -0.000002405    0.000001039    0.000008283
      5        6           0.000006361    0.000000426   -0.000011532
      6        6          -0.000000719   -0.000001229    0.000004089
      7        6           0.000005741    0.000007264    0.000009966
      8        8           0.000000014    0.000006749    0.000006814
      9        8          -0.000001377   -0.000004293    0.000000865
     10       16           0.000003330    0.000019080   -0.000009458
     11        7          -0.000005686   -0.000005822    0.000001083
     12        8           0.000001500   -0.000011746    0.000020640
     13        6           0.000001659   -0.000000624   -0.000003679
     14        6          -0.000000239   -0.000001727   -0.000004857
     15        6           0.000000318   -0.000002312   -0.000002542
     16        6          -0.000000147   -0.000002414   -0.000000567
     17        6          -0.000000536    0.000000127   -0.000002394
     18        8           0.000003630    0.000003899   -0.000008626
     19        6          -0.000002406   -0.000000261   -0.000000932
     20        6           0.000010465   -0.000001372    0.000004047
     21        8          -0.000007092    0.000005679    0.000000710
     22        6          -0.000002002   -0.000003292   -0.000009660
     23        7           0.000011192    0.000001651    0.000004432
     24        6           0.000002446   -0.000000117   -0.000001286
     25        7          -0.000016708   -0.000002528   -0.000008014
     26        6          -0.000000753    0.000001760    0.000001548
     27        6           0.000003927    0.000001018    0.000001218
     28       15           0.000002760   -0.000005295    0.000007707
     29        6          -0.000003310    0.000000954    0.000001781
     30        6           0.000001310    0.000002206    0.000002713
     31        6           0.000002578    0.000002807   -0.000000502
     32        6           0.000004028    0.000000409   -0.000001639
     33        6           0.000004182    0.000003478    0.000004537
     34        6           0.000003672   -0.000000521   -0.000003857
     35        6           0.000000913    0.000000333   -0.000005154
     36        6          -0.000000801   -0.000001195   -0.000004146
     37        6          -0.000000357   -0.000001034   -0.000001968
     38        6          -0.000000273   -0.000000582   -0.000001607
     39        6          -0.000001468   -0.000001533    0.000000189
     40        6          -0.000000197   -0.000000660    0.000002258
     41        6          -0.000001287   -0.000001373    0.000002247
     42        6          -0.000002644   -0.000002101   -0.000000232
     43        6          -0.000002266   -0.000002896    0.000000075
     44        1          -0.000000825   -0.000000590    0.000001747
     45        1          -0.000001214   -0.000002628    0.000001597
     46        1          -0.000001880   -0.000001470    0.000002173
     47        1           0.000000344   -0.000000461    0.000002704
     48        1          -0.000000744    0.000000317    0.000002231
     49        1           0.000000881    0.000003137   -0.000001700
     50        1          -0.000000158    0.000000003   -0.000001994
     51        1           0.000000154   -0.000000473   -0.000004235
     52        1          -0.000001349   -0.000001894   -0.000004507
     53        1          -0.000001710   -0.000002326   -0.000002400
     54        1          -0.000001390   -0.000000844    0.000000219
     55        1           0.000000469    0.000001154   -0.000000814
     56        1           0.000001182    0.000001637    0.000002074
     57        1           0.000002069    0.000003072    0.000002061
     58        1           0.000002284    0.000003451    0.000000781
     59        1          -0.000002350    0.000003892   -0.000001950
     60        1           0.000000515    0.000002207   -0.000002032
     61        1           0.000001103    0.000001295   -0.000003564
     62        1           0.000000458   -0.000000325   -0.000004686
     63        1          -0.000001496   -0.000001427   -0.000003786
     64        1          -0.000002608    0.000000350   -0.000001194
     65        1          -0.000000856   -0.000000442    0.000003546
     66        1          -0.000002086   -0.000002204    0.000002461
     67        1          -0.000002203   -0.000002923    0.000001767
     68        1          -0.000001161   -0.000002332    0.000000276
     69        1          -0.000000510   -0.000000371    0.000000548
 -------------------------------------------------------------------
 Cartesian Forces:  Max     0.000020640 RMS     0.000004053
 FormGI is forming the generalized inverse of G from B-inverse, IUseBI=4.

 ----------------------------------------------------------------------

 Electric dipole moment (input orientation):
 (Debye = 10**-18 statcoulomb cm , SI units = C m)
                  (au)            (Debye)         (10**-30 SI)
   Tot        0.661284D+01      0.168082D+02      0.560660D+02
   x          0.535997D+01      0.136237D+02      0.454437D+02
   y         -0.257083D+01     -0.653440D+01     -0.217964D+02
   z         -0.289676D+01     -0.736283D+01     -0.245598D+02

 Dipole polarizability, Alpha (input orientation).
 (esu units = cm**3 , SI units = C**2 m**2 J**-1)
 Alpha(0;0):
               (au)            (10**-24 esu)      (10**-40 SI)
   iso        0.493918D+03      0.731911D+02      0.814360D+02
   aniso      0.100659D+03      0.149161D+02      0.165964D+02
   xx         0.484813D+03      0.718419D+02      0.799348D+02
   yx         0.130440D+02      0.193292D+01      0.215066D+01
   yy         0.442585D+03      0.655844D+02      0.729725D+02
   zx        -0.293080D+01     -0.434299D+00     -0.483223D+00
   zy        -0.365836D+01     -0.542113D+00     -0.603182D+00
   zz         0.554355D+03      0.821470D+02      0.914008D+02

 ----------------------------------------------------------------------

 Dipole orientation:
     6         -6.57874879          0.41108953         -3.19122820
     6         -8.90026738         -0.72353125         -3.64425074
     6         -9.73655892         -1.05738009         -6.11979416
     6         -8.25762332         -0.23708111         -8.12540560
     6         -5.94147250          0.89100047         -7.62765390
     6         -5.03878702          1.21783683         -5.17659856
     6         -2.51827948          2.48128553         -4.60801553
     8         -0.82416664          3.69236692        -11.55083207
     8         -3.78221844          6.12964857         -8.75763423
    16         -2.46264980          3.81094471         -9.38032479
     7         -0.97808325          2.58061910         -6.92445968
     8         -4.54546529          1.60649213         -9.75674088
     6          2.72723469         -6.45733271          0.05868412
     6          2.10917223         -8.87415950          0.89528867
     6         -0.34508301         -9.40895194          1.67714655
     6         -2.18356578         -7.52077381          1.60461466
     6         -1.56022463         -5.10903091          0.76845003
     8          3.95029645         -1.54352979         -1.42519395
     6          0.90375162         -4.56453136          0.00275280
     6          1.71559293         -1.93189266         -0.80814274
     8         -0.25838539         -1.24174613         -3.11460541
     6         -1.08012515          1.03024582         -2.63450235
     7         -0.73545135          2.00426384         -0.42678155
     6          3.97895416          3.65922320          3.07371847
     7          0.46278726          0.07511378          0.96861046
     6          3.52863468         -1.65406895          4.83672664
     6         -0.48658630          1.95235105          5.88812902
    15          1.86776201          1.03357899          3.59504033
     6          4.28137829          5.55690085          4.88852369
     6          5.95019890          7.53436738          4.43038032
     6          7.29784943          7.62453372          2.17021048
     6          6.98195764          5.73994911          0.35862471
     6          5.32011819          3.75081364          0.79421792
     6          6.13688545         -1.88603062          4.51622127
     6          7.35656684         -4.05564140          5.35947900
     6          5.97833802         -5.98077291          6.50780518
     6          3.37522130         -5.74730085          6.82878244
     6          2.14369133         -3.58527054          5.99893947
     6         -2.86478468          2.80658184          5.11382065
     6         -4.62856759          3.54424238          6.91805006
     6         -4.02802647          3.44562613          9.47861106
     6         -1.65794955          2.59983945         10.25115574
     6          0.11415899          1.84659221          8.46337067
     1         -5.91931528          0.66766549         -1.26370394
     1        -10.05394124         -1.34940583         -2.06963214
     1        -11.54534135         -1.94716631         -6.49348576
     1         -8.86232554         -0.45352857        -10.07127414
     1         -2.86047608          4.38024485         -3.84724187
     1          0.73836335          3.41328341         -6.67940951
     1          4.63661991         -5.99205543         -0.52384651
     1          3.54907051        -10.33602894          0.95112920
     1         -0.82965357        -11.29035724          2.33994373
     1         -4.10355416         -7.93136898          2.20365112
     1         -2.98354309         -3.63103298          0.72647469
     1          3.21767049          5.51201425          6.64167933
     1          6.18765238          9.01030267          5.83397093
     1          8.59246770          9.17624325          1.81646264
     1          8.02685420          5.82122699         -1.40433867
     1          5.05380499          2.25197868         -0.59120021
     1          7.20665192         -0.39677240          3.59970326
     1          9.38319573         -4.24290579          5.11188669
     1          6.93734173         -7.67517569          7.15403826
     1          2.30084449         -7.25540199          7.70778242
     1          0.11252046         -3.41688523          6.22589364
     1         -3.32052675          2.89636661          3.11749283
     1         -6.47728072          4.19830865          6.31840911
     1         -5.41236073          4.02388004         10.87745267
     1         -1.19003981          2.51223988         12.24545864
     1          1.94724982          1.15848298          9.07915933

 Electric dipole moment (dipole orientation):
 (Debye = 10**-18 statcoulomb cm , SI units = C m)
                  (au)            (Debye)         (10**-30 SI)
   Tot        0.661284D+01      0.168082D+02      0.560660D+02
   x          0.000000D+00      0.000000D+00      0.000000D+00
   y          0.000000D+00      0.000000D+00      0.000000D+00
   z          0.661284D+01      0.168082D+02      0.560660D+02

 Dipole polarizability, Alpha (dipole orientation).
 (esu units = cm**3 , SI units = C**2 m**2 J**-1)
 Alpha(0;0):
               (au)            (10**-24 esu)      (10**-40 SI)
   iso        0.493918D+03      0.731911D+02      0.814360D+02
   aniso      0.100659D+03      0.149161D+02      0.165964D+02
   xx         0.527698D+03      0.781967D+02      0.870056D+02
   yx         0.254710D+02      0.377441D+01      0.419959D+01
   yy         0.469666D+03      0.695973D+02      0.774375D+02
   zx        -0.212562D+02     -0.314984D+01     -0.350467D+01
   zy        -0.369704D+02     -0.547845D+01     -0.609560D+01
   zz         0.484390D+03      0.717792D+02      0.798651D+02

 ----------------------------------------------------------------------

 This type of calculation cannot be archived.


 I DO NOT DEFINE TIME, SPACE, PLACE, AND MOTION, AS BEING WELL KNOWN TO ALL.
                                            -- NEWTON (1642-1726), PRINCIPIA
 Job cpu time:       0 days  0 hours  0 minutes  2.4 seconds.
 Elapsed time:       0 days  0 hours  0 minutes  0.6 seconds.
 File lengths (MBytes):  RWF=     10 Int=      0 D2E=      0 Chk=     12 Scr=      1
 Normal termination of Gaussian 16 at Sat Apr  4 18:13:13 2020.
