 Entering Gaussian System, Link 0=g16
 Initial command:
 /apps/cent7/gaussian/g16-A.03/g16-haswell/g16/l1.exe "/scratch/brown/finej/0051_imine_mechanism/ts_631gd/cyclic_complete_2/new_logs_2/Gau-213175.inp" -scrdir="/scratch/brown/finej/0051_imine_mechanism/ts_631gd/cyclic_complete_2/new_logs_2/"
 Entering Link 1 = /apps/cent7/gaussian/g16-A.03/g16-haswell/g16/l1.exe PID=    213176.
  
 Copyright (c) 1988,1990,1992,1993,1995,1998,2003,2009,2016,
            Gaussian, Inc.  All Rights Reserved.
  
 This is part of the Gaussian(R) 16 program.  It is based on
 the Gaussian(R) 09 system (copyright 2009, Gaussian, Inc.),
 the Gaussian(R) 03 system (copyright 2003, Gaussian, Inc.),
 the Gaussian(R) 98 system (copyright 1998, Gaussian, Inc.),
 the Gaussian(R) 94 system (copyright 1995, Gaussian, Inc.),
 the Gaussian 92(TM) system (copyright 1992, Gaussian, Inc.),
 the Gaussian 90(TM) system (copyright 1990, Gaussian, Inc.),
 the Gaussian 88(TM) system (copyright 1988, Gaussian, Inc.),
 the Gaussian 86(TM) system (copyright 1986, Carnegie Mellon
 University), and the Gaussian 82(TM) system (copyright 1983,
 Carnegie Mellon University). Gaussian is a federally registered
 trademark of Gaussian, Inc.
  
 This software contains proprietary and confidential information,
 including trade secrets, belonging to Gaussian, Inc.
  
 This software is provided under written license and may be
 used, copied, transmitted, or stored only in accord with that
 written license.
  
 The following legend is applicable only to US Government
 contracts under FAR:
  
                    RESTRICTED RIGHTS LEGEND
  
 Use, reproduction and disclosure by the US Government is
 subject to restrictions as set forth in subparagraphs (a)
 and (c) of the Commercial Computer Software - Restricted
 Rights clause in FAR 52.227-19.
  
 Gaussian, Inc.
 340 Quinnipiac St., Bldg. 40, Wallingford CT 06492
  
  
 ---------------------------------------------------------------
 Warning -- This program may not be used in any manner that
 competes with the business of Gaussian, Inc. or will provide
 assistance to any competitor of Gaussian, Inc.  The licensee
 of this program is prohibited from giving any competitor of
 Gaussian, Inc. access to this program.  By using this program,
 the user acknowledges that Gaussian, Inc. is engaged in the
 business of creating and licensing software in the field of
 computational chemistry and represents and warrants to the
 licensee that it is not a competitor of Gaussian, Inc. and that
 it will not use this program in any manner prohibited above.
 ---------------------------------------------------------------
  

 Cite this work as:
 Gaussian 16, Revision A.03,
 M. J. Frisch, G. W. Trucks, H. B. Schlegel, G. E. Scuseria, 
 M. A. Robb, J. R. Cheeseman, G. Scalmani, V. Barone, 
 G. A. Petersson, H. Nakatsuji, X. Li, M. Caricato, A. V. Marenich, 
 J. Bloino, B. G. Janesko, R. Gomperts, B. Mennucci, H. P. Hratchian, 
 J. V. Ortiz, A. F. Izmaylov, J. L. Sonnenberg, D. Williams-Young, 
 F. Ding, F. Lipparini, F. Egidi, J. Goings, B. Peng, A. Petrone, 
 T. Henderson, D. Ranasinghe, V. G. Zakrzewski, J. Gao, N. Rega, 
 G. Zheng, W. Liang, M. Hada, M. Ehara, K. Toyota, R. Fukuda, 
 J. Hasegawa, M. Ishida, T. Nakajima, Y. Honda, O. Kitao, H. Nakai, 
 T. Vreven, K. Throssell, J. A. Montgomery, Jr., J. E. Peralta, 
 F. Ogliaro, M. J. Bearpark, J. J. Heyd, E. N. Brothers, K. N. Kudin, 
 V. N. Staroverov, T. A. Keith, R. Kobayashi, J. Normand, 
 K. Raghavachari, A. P. Rendell, J. C. Burant, S. S. Iyengar, 
 J. Tomasi, M. Cossi, J. M. Millam, M. Klene, C. Adamo, R. Cammi, 
 J. W. Ochterski, R. L. Martin, K. Morokuma, O. Farkas, 
 J. B. Foresman, and D. J. Fox, Gaussian, Inc., Wallingford CT, 2016.
 
 ******************************************
 Gaussian 16:  ES64L-G16RevA.03 25-Dec-2016
                 4-Apr-2020 
 ******************************************
 %nprocshared=4
 Will use up to    4 processors via shared memory.
 %mem=1GB
 %oldchk=chk/cyclic_1_to_2.chk
 Copying data from "chk/cyclic_1_to_2.chk" to current chk file "/scratch/brown/finej/0051_imine_mechanism/ts_631gd/cyclic_complete_2/new_logs_2/Gau-213176.chk"
 IOpt=  2 FromEx=T IUOpen= 4 IOptOp= 5 NList=   0 IFRang= 0 IUIn= 4 IUOut= 2.
 ----------------------------------------------------------------------
 # freq=readfc wb97xd/6-31g(d) scrf=solvent=dichloromethane geom=check 
 temperature=263.15
 ----------------------------------------------------------------------
 1/29=2,38=1,112=263150,172=1/1;
 2/12=2,40=1/2;
 7/8=1,25=11/16;
 99/5=2/99;
 -------------------------------
 Attack of PINC on Sulfonylimine
 -------------------------------
 Structure from the checkpoint file:  "/scratch/brown/finej/0051_imine_mechanism/ts_631gd/cyclic_complete_2/new_logs_2/Gau-213176.chk"
 Charge =  0 Multiplicity = 1
 Redundant internal coordinates found in file.  (old form).
 C,0,-2.4700875892,2.4666475036,-0.3656258029
 C,0,-2.3505247139,3.0012577108,0.9070686243
 C,0,-2.664273504,2.2115921563,2.0174217072
 C,0,-3.1091846147,0.9089657715,1.8534438333
 C,0,-3.2244151643,0.3833190809,0.568847361
 C,0,-2.9027980531,1.1496598714,-0.5517554218
 C,0,-3.072249446,0.5860773903,-1.9123656392
 O,0,-2.3084095288,-2.3501485975,-0.9833863298
 O,0,-4.7886172278,-2.5334259092,-0.9972308889
 S,0,-3.6082517293,-1.6971294847,-0.9903026869
 N,0,-3.7256308541,-0.562896261,-2.115349981
 O,0,-3.7155430983,-0.895216521,0.4710529785
 C,0,-1.1256927895,0.3527805101,-2.3272726505
 N,0,-0.1630713589,-0.1923465632,-1.9478835327
 C,0,2.0928635458,1.5022650326,-0.4287253076
 N,0,0.9264246208,-0.8499336714,-1.619627039
 C,0,0.7387334414,-0.462551286,1.2272736858
 C,0,3.2087725201,-1.2152653111,-0.2026913237
 P,0,1.6920059843,-0.2540566189,-0.2942442048
 C,0,1.0885939302,2.4451755622,-0.178770864
 C,0,1.3419283941,3.7971369091,-0.3785202296
 C,0,2.5953071842,4.2119918518,-0.8234327784
 C,0,3.5970024864,3.2757345925,-1.0717039526
 C,0,3.3488224006,1.9206505254,-0.8800049862
 C,0,-0.226515617,-1.4726011364,1.2618316122
 C,0,-0.937720649,-1.7060712273,2.4341211448
 C,0,-0.6843308215,-0.9398018779,3.5682873953
 C,0,0.271769737,0.0740272855,3.5328760359
 C,0,0.9831597457,0.318590274,2.3637427874
 C,0,3.8134750776,-1.4569097643,1.034447638
 C,0,5.0133757231,-2.1576254682,1.0897928716
 C,0,5.6073057612,-2.6170074497,-0.0834811152
 C,0,5.0031399007,-2.3790270124,-1.3161800503
 C,0,3.8042817037,-1.6772679969,-1.3815789398
 H,0,-2.2159566581,3.0618593919,-1.2388921712
 H,0,-2.0138765493,4.0239757628,1.040093962
 H,0,-2.5650837301,2.6174853811,3.0189226669
 H,0,-3.3628154182,0.2838641654,2.7016424485
 H,0,-3.2284182629,1.3161958536,-2.7004603665
 H,0,0.1152694069,2.1293507275,0.1838195189
 H,0,0.5613858824,4.5255688066,-0.1827937533
 H,0,2.7935202076,5.2684545886,-0.9747597978
 H,0,4.5742382375,3.6005385353,-1.4137380288
 H,0,4.132060807,1.1947342069,-1.0760487718
 H,0,-0.4415902272,-2.0558788291,0.3728358005
 H,0,-1.6984371451,-2.4793396237,2.452434587
 H,0,-1.241290858,-1.1243229248,4.481836389
 H,0,0.4606665656,0.6780596485,4.414371189
 H,0,1.7192978663,1.116729334,2.3370476364
 H,0,3.3487592718,-1.1118165761,1.9530256512
 H,0,5.4805373845,-2.349259508,2.0501482883
 H,0,6.542486783,-3.1661503765,-0.0367484818
 H,0,5.4637637726,-2.7421483315,-2.2290581095
 H,0,3.3238812739,-1.4963351342,-2.3371436048
 Recover connectivity data from disk.
                           ----------------------------
                           !    Current Parameters    !
                           ! (Angstroms and Degrees)  !
 --------------------------                            --------------------------
 ! Name  Definition              Value          Derivative Info.                !
 --------------------------------------------------------------------------------
 ! R1    R(1,2)                  1.3856         estimate D2E/DX2                !
 ! R2    R(1,6)                  1.3987         estimate D2E/DX2                !
 ! R3    R(1,35)                 1.0869         estimate D2E/DX2                !
 ! R4    R(2,3)                  1.3982         estimate D2E/DX2                !
 ! R5    R(2,36)                 1.0849         estimate D2E/DX2                !
 ! R6    R(3,4)                  1.3862         estimate D2E/DX2                !
 ! R7    R(3,37)                 1.0852         estimate D2E/DX2                !
 ! R8    R(4,5)                  1.3928         estimate D2E/DX2                !
 ! R9    R(4,38)                 1.0838         estimate D2E/DX2                !
 ! R10   R(5,6)                  1.3952         estimate D2E/DX2                !
 ! R11   R(5,12)                 1.3731         estimate D2E/DX2                !
 ! R12   R(6,7)                  1.4824         estimate D2E/DX2                !
 ! R13   R(7,11)                 1.3373         estimate D2E/DX2                !
 ! R14   R(7,13)                 2.0039         estimate D2E/DX2                !
 ! R15   R(7,39)                 1.0856         estimate D2E/DX2                !
 ! R16   R(8,10)                 1.4547         estimate D2E/DX2                !
 ! R17   R(9,10)                 1.4466         estimate D2E/DX2                !
 ! R18   R(10,11)                1.6019         estimate D2E/DX2                !
 ! R19   R(10,12)                1.6704         estimate D2E/DX2                !
 ! R20   R(13,14)                1.1695         estimate D2E/DX2                !
 ! R21   R(14,16)                1.3142         estimate D2E/DX2                !
 ! R22   R(15,19)                1.8065         estimate D2E/DX2                !
 ! R23   R(15,20)                1.4            estimate D2E/DX2                !
 ! R24   R(15,24)                1.3986         estimate D2E/DX2                !
 ! R25   R(16,19)                1.6425         estimate D2E/DX2                !
 ! R26   R(17,19)                1.8075         estimate D2E/DX2                !
 ! R27   R(17,25)                1.3975         estimate D2E/DX2                !
 ! R28   R(17,29)                1.4005         estimate D2E/DX2                !
 ! R29   R(18,19)                1.798          estimate D2E/DX2                !
 ! R30   R(18,30)                1.3981         estimate D2E/DX2                !
 ! R31   R(18,34)                1.3992         estimate D2E/DX2                !
 ! R32   R(20,21)                1.3899         estimate D2E/DX2                !
 ! R33   R(20,40)                1.0856         estimate D2E/DX2                !
 ! R34   R(21,22)                1.3932         estimate D2E/DX2                !
 ! R35   R(21,41)                1.0854         estimate D2E/DX2                !
 ! R36   R(22,23)                1.3934         estimate D2E/DX2                !
 ! R37   R(22,42)                1.0855         estimate D2E/DX2                !
 ! R38   R(23,24)                1.3909         estimate D2E/DX2                !
 ! R39   R(23,43)                1.0851         estimate D2E/DX2                !
 ! R40   R(24,44)                1.0857         estimate D2E/DX2                !
 ! R41   R(25,26)                1.3909         estimate D2E/DX2                !
 ! R42   R(25,45)                1.0848         estimate D2E/DX2                !
 ! R43   R(26,27)                1.392          estimate D2E/DX2                !
 ! R44   R(26,46)                1.0849         estimate D2E/DX2                !
 ! R45   R(27,28)                1.394          estimate D2E/DX2                !
 ! R46   R(27,47)                1.0857         estimate D2E/DX2                !
 ! R47   R(28,29)                1.3902         estimate D2E/DX2                !
 ! R48   R(28,48)                1.0852         estimate D2E/DX2                !
 ! R49   R(29,49)                1.0861         estimate D2E/DX2                !
 ! R50   R(30,31)                1.3906         estimate D2E/DX2                !
 ! R51   R(30,50)                1.0857         estimate D2E/DX2                !
 ! R52   R(31,32)                1.393          estimate D2E/DX2                !
 ! R53   R(31,51)                1.085          estimate D2E/DX2                !
 ! R54   R(32,33)                1.3933         estimate D2E/DX2                !
 ! R55   R(32,52)                1.0855         estimate D2E/DX2                !
 ! R56   R(33,34)                1.3907         estimate D2E/DX2                !
 ! R57   R(33,53)                1.0851         estimate D2E/DX2                !
 ! R58   R(34,54)                1.0847         estimate D2E/DX2                !
 ! A1    A(2,1,6)              120.8121         estimate D2E/DX2                !
 ! A2    A(2,1,35)             120.4306         estimate D2E/DX2                !
 ! A3    A(6,1,35)             118.7527         estimate D2E/DX2                !
 ! A4    A(1,2,3)              119.4828         estimate D2E/DX2                !
 ! A5    A(1,2,36)             120.2072         estimate D2E/DX2                !
 ! A6    A(3,2,36)             120.3098         estimate D2E/DX2                !
 ! A7    A(2,3,4)              120.5837         estimate D2E/DX2                !
 ! A8    A(2,3,37)             120.0764         estimate D2E/DX2                !
 ! A9    A(4,3,37)             119.3393         estimate D2E/DX2                !
 ! A10   A(3,4,5)              119.3607         estimate D2E/DX2                !
 ! A11   A(3,4,38)             121.6369         estimate D2E/DX2                !
 ! A12   A(5,4,38)             119.0005         estimate D2E/DX2                !
 ! A13   A(4,5,6)              120.9608         estimate D2E/DX2                !
 ! A14   A(4,5,12)             116.5324         estimate D2E/DX2                !
 ! A15   A(6,5,12)             122.4594         estimate D2E/DX2                !
 ! A16   A(1,6,5)              118.7919         estimate D2E/DX2                !
 ! A17   A(1,6,7)              121.0288         estimate D2E/DX2                !
 ! A18   A(5,6,7)              120.1343         estimate D2E/DX2                !
 ! A19   A(6,7,11)             121.4541         estimate D2E/DX2                !
 ! A20   A(6,7,13)              97.0803         estimate D2E/DX2                !
 ! A21   A(6,7,39)             115.2805         estimate D2E/DX2                !
 ! A22   A(11,7,13)            110.0694         estimate D2E/DX2                !
 ! A23   A(11,7,39)            113.4139         estimate D2E/DX2                !
 ! A24   A(13,7,39)             93.8835         estimate D2E/DX2                !
 ! A25   A(8,10,9)             118.0088         estimate D2E/DX2                !
 ! A26   A(8,10,11)            112.7478         estimate D2E/DX2                !
 ! A27   A(8,10,12)            105.5899         estimate D2E/DX2                !
 ! A28   A(9,10,11)            110.2541         estimate D2E/DX2                !
 ! A29   A(9,10,12)            103.2569         estimate D2E/DX2                !
 ! A30   A(11,10,12)           105.6531         estimate D2E/DX2                !
 ! A31   A(7,11,10)            117.7725         estimate D2E/DX2                !
 ! A32   A(5,12,10)            119.101          estimate D2E/DX2                !
 ! A33   A(7,13,14)            141.8729         estimate D2E/DX2                !
 ! A34   A(19,15,20)           118.837          estimate D2E/DX2                !
 ! A35   A(19,15,24)           120.9384         estimate D2E/DX2                !
 ! A36   A(20,15,24)           120.0189         estimate D2E/DX2                !
 ! A37   A(14,16,19)           113.9807         estimate D2E/DX2                !
 ! A38   A(19,17,25)           117.9328         estimate D2E/DX2                !
 ! A39   A(19,17,29)           121.7811         estimate D2E/DX2                !
 ! A40   A(25,17,29)           120.2371         estimate D2E/DX2                !
 ! A41   A(19,18,30)           120.1542         estimate D2E/DX2                !
 ! A42   A(19,18,34)           119.514          estimate D2E/DX2                !
 ! A43   A(30,18,34)           120.2911         estimate D2E/DX2                !
 ! A44   A(15,19,16)           113.3325         estimate D2E/DX2                !
 ! A45   A(15,19,17)           106.9676         estimate D2E/DX2                !
 ! A46   A(15,19,18)           109.6545         estimate D2E/DX2                !
 ! A47   A(16,19,17)           113.0526         estimate D2E/DX2                !
 ! A48   A(16,19,18)           103.9066         estimate D2E/DX2                !
 ! A49   A(17,19,18)           109.8991         estimate D2E/DX2                !
 ! A50   A(15,20,21)           119.9137         estimate D2E/DX2                !
 ! A51   A(15,20,40)           120.4519         estimate D2E/DX2                !
 ! A52   A(21,20,40)           119.629          estimate D2E/DX2                !
 ! A53   A(20,21,22)           119.9673         estimate D2E/DX2                !
 ! A54   A(20,21,41)           119.7216         estimate D2E/DX2                !
 ! A55   A(22,21,41)           120.3106         estimate D2E/DX2                !
 ! A56   A(21,22,23)           120.2353         estimate D2E/DX2                !
 ! A57   A(21,22,42)           119.9075         estimate D2E/DX2                !
 ! A58   A(23,22,42)           119.857          estimate D2E/DX2                !
 ! A59   A(22,23,24)           120.1183         estimate D2E/DX2                !
 ! A60   A(22,23,43)           120.1621         estimate D2E/DX2                !
 ! A61   A(24,23,43)           119.7195         estimate D2E/DX2                !
 ! A62   A(15,24,23)           119.7451         estimate D2E/DX2                !
 ! A63   A(15,24,44)           120.4016         estimate D2E/DX2                !
 ! A64   A(23,24,44)           119.8525         estimate D2E/DX2                !
 ! A65   A(17,25,26)           119.691          estimate D2E/DX2                !
 ! A66   A(17,25,45)           120.3497         estimate D2E/DX2                !
 ! A67   A(26,25,45)           119.9387         estimate D2E/DX2                !
 ! A68   A(25,26,27)           120.0815         estimate D2E/DX2                !
 ! A69   A(25,26,46)           119.4993         estimate D2E/DX2                !
 ! A70   A(27,26,46)           120.4141         estimate D2E/DX2                !
 ! A71   A(26,27,28)           120.2983         estimate D2E/DX2                !
 ! A72   A(26,27,47)           119.9087         estimate D2E/DX2                !
 ! A73   A(28,27,47)           119.7893         estimate D2E/DX2                !
 ! A74   A(27,28,29)           120.0175         estimate D2E/DX2                !
 ! A75   A(27,28,48)           120.2373         estimate D2E/DX2                !
 ! A76   A(29,28,48)           119.7446         estimate D2E/DX2                !
 ! A77   A(17,29,28)           119.6685         estimate D2E/DX2                !
 ! A78   A(17,29,49)           120.5446         estimate D2E/DX2                !
 ! A79   A(28,29,49)           119.786          estimate D2E/DX2                !
 ! A80   A(18,30,31)           119.7041         estimate D2E/DX2                !
 ! A81   A(18,30,50)           120.5699         estimate D2E/DX2                !
 ! A82   A(31,30,50)           119.7225         estimate D2E/DX2                !
 ! A83   A(30,31,32)           120.0367         estimate D2E/DX2                !
 ! A84   A(30,31,51)           119.7181         estimate D2E/DX2                !
 ! A85   A(32,31,51)           120.2443         estimate D2E/DX2                !
 ! A86   A(31,32,33)           120.2645         estimate D2E/DX2                !
 ! A87   A(31,32,52)           119.8617         estimate D2E/DX2                !
 ! A88   A(33,32,52)           119.8733         estimate D2E/DX2                !
 ! A89   A(32,33,34)           120.107          estimate D2E/DX2                !
 ! A90   A(32,33,53)           120.2058         estimate D2E/DX2                !
 ! A91   A(34,33,53)           119.687          estimate D2E/DX2                !
 ! A92   A(18,34,33)           119.5963         estimate D2E/DX2                !
 ! A93   A(18,34,54)           119.9102         estimate D2E/DX2                !
 ! A94   A(33,34,54)           120.4899         estimate D2E/DX2                !
 ! A95   L(13,14,16,8,-1)      180.1949         estimate D2E/DX2                !
 ! A96   L(13,14,16,8,-2)      175.2378         estimate D2E/DX2                !
 ! D1    D(6,1,2,3)              0.1318         estimate D2E/DX2                !
 ! D2    D(6,1,2,36)           179.9952         estimate D2E/DX2                !
 ! D3    D(35,1,2,3)          -179.0742         estimate D2E/DX2                !
 ! D4    D(35,1,2,36)            0.7892         estimate D2E/DX2                !
 ! D5    D(2,1,6,5)              0.5438         estimate D2E/DX2                !
 ! D6    D(2,1,6,7)            178.1072         estimate D2E/DX2                !
 ! D7    D(35,1,6,5)           179.7628         estimate D2E/DX2                !
 ! D8    D(35,1,6,7)            -2.6738         estimate D2E/DX2                !
 ! D9    D(1,2,3,4)             -0.8593         estimate D2E/DX2                !
 ! D10   D(1,2,3,37)           179.4199         estimate D2E/DX2                !
 ! D11   D(36,2,3,4)           179.2775         estimate D2E/DX2                !
 ! D12   D(36,2,3,37)           -0.4433         estimate D2E/DX2                !
 ! D13   D(2,3,4,5)              0.8893         estimate D2E/DX2                !
 ! D14   D(2,3,4,38)          -179.6255         estimate D2E/DX2                !
 ! D15   D(37,3,4,5)          -179.3878         estimate D2E/DX2                !
 ! D16   D(37,3,4,38)            0.0974         estimate D2E/DX2                !
 ! D17   D(3,4,5,6)             -0.1969         estimate D2E/DX2                !
 ! D18   D(3,4,5,12)          -177.751          estimate D2E/DX2                !
 ! D19   D(38,4,5,6)          -179.6957         estimate D2E/DX2                !
 ! D20   D(38,4,5,12)            2.7502         estimate D2E/DX2                !
 ! D21   D(4,5,6,1)             -0.5128         estimate D2E/DX2                !
 ! D22   D(4,5,6,7)           -178.0986         estimate D2E/DX2                !
 ! D23   D(12,5,6,1)           176.8936         estimate D2E/DX2                !
 ! D24   D(12,5,6,7)            -0.6922         estimate D2E/DX2                !
 ! D25   D(4,5,12,10)         -168.3182         estimate D2E/DX2                !
 ! D26   D(6,5,12,10)           14.1676         estimate D2E/DX2                !
 ! D27   D(1,6,7,11)          -166.7011         estimate D2E/DX2                !
 ! D28   D(1,6,7,13)            74.5263         estimate D2E/DX2                !
 ! D29   D(1,6,7,39)           -23.1825         estimate D2E/DX2                !
 ! D30   D(5,6,7,11)            10.8298         estimate D2E/DX2                !
 ! D31   D(5,6,7,13)          -107.9428         estimate D2E/DX2                !
 ! D32   D(5,6,7,39)           154.3484         estimate D2E/DX2                !
 ! D33   D(6,7,11,10)          -33.8365         estimate D2E/DX2                !
 ! D34   D(13,7,11,10)          78.3308         estimate D2E/DX2                !
 ! D35   D(39,7,11,10)        -177.9727         estimate D2E/DX2                !
 ! D36   D(6,7,13,14)           59.4331         estimate D2E/DX2                !
 ! D37   D(11,7,13,14)         -67.8099         estimate D2E/DX2                !
 ! D38   D(39,7,13,14)         175.5213         estimate D2E/DX2                !
 ! D39   D(8,10,11,7)          -73.4974         estimate D2E/DX2                !
 ! D40   D(9,10,11,7)          152.2762         estimate D2E/DX2                !
 ! D41   D(12,10,11,7)          41.3453         estimate D2E/DX2                !
 ! D42   D(8,10,12,5)           87.7761         estimate D2E/DX2                !
 ! D43   D(9,10,12,5)         -147.7086         estimate D2E/DX2                !
 ! D44   D(11,10,12,5)         -31.8995         estimate D2E/DX2                !
 ! D45   D(7,13,16,19)         -78.3577         estimate D2E/DX2                !
 ! D46   D(20,15,19,16)         80.1949         estimate D2E/DX2                !
 ! D47   D(20,15,19,17)        -45.0776         estimate D2E/DX2                !
 ! D48   D(20,15,19,18)       -164.2109         estimate D2E/DX2                !
 ! D49   D(24,15,19,16)        -94.5953         estimate D2E/DX2                !
 ! D50   D(24,15,19,17)        140.1322         estimate D2E/DX2                !
 ! D51   D(24,15,19,18)         20.9989         estimate D2E/DX2                !
 ! D52   D(19,15,20,21)       -174.8982         estimate D2E/DX2                !
 ! D53   D(19,15,20,40)          5.9483         estimate D2E/DX2                !
 ! D54   D(24,15,20,21)         -0.0589         estimate D2E/DX2                !
 ! D55   D(24,15,20,40)       -179.2124         estimate D2E/DX2                !
 ! D56   D(19,15,24,23)        175.085          estimate D2E/DX2                !
 ! D57   D(19,15,24,44)         -5.2547         estimate D2E/DX2                !
 ! D58   D(20,15,24,23)          0.3559         estimate D2E/DX2                !
 ! D59   D(20,15,24,44)       -179.9838         estimate D2E/DX2                !
 ! D60   D(14,16,19,15)        -54.9276         estimate D2E/DX2                !
 ! D61   D(14,16,19,17)         67.0079         estimate D2E/DX2                !
 ! D62   D(14,16,19,18)       -173.8852         estimate D2E/DX2                !
 ! D63   D(25,17,19,15)        148.5708         estimate D2E/DX2                !
 ! D64   D(25,17,19,16)         23.1293         estimate D2E/DX2                !
 ! D65   D(25,17,19,18)        -92.4542         estimate D2E/DX2                !
 ! D66   D(29,17,19,15)        -33.973          estimate D2E/DX2                !
 ! D67   D(29,17,19,16)       -159.4145         estimate D2E/DX2                !
 ! D68   D(29,17,19,18)         85.002          estimate D2E/DX2                !
 ! D69   D(19,17,25,26)        177.0209         estimate D2E/DX2                !
 ! D70   D(19,17,25,45)         -4.6295         estimate D2E/DX2                !
 ! D71   D(29,17,25,26)         -0.4762         estimate D2E/DX2                !
 ! D72   D(29,17,25,45)        177.8734         estimate D2E/DX2                !
 ! D73   D(19,17,29,28)       -176.6293         estimate D2E/DX2                !
 ! D74   D(19,17,29,49)          3.7222         estimate D2E/DX2                !
 ! D75   D(25,17,29,28)          0.7693         estimate D2E/DX2                !
 ! D76   D(25,17,29,49)       -178.8792         estimate D2E/DX2                !
 ! D77   D(30,18,19,15)         87.817          estimate D2E/DX2                !
 ! D78   D(30,18,19,16)       -150.7367         estimate D2E/DX2                !
 ! D79   D(30,18,19,17)        -29.4956         estimate D2E/DX2                !
 ! D80   D(34,18,19,15)        -89.8711         estimate D2E/DX2                !
 ! D81   D(34,18,19,16)         31.5753         estimate D2E/DX2                !
 ! D82   D(34,18,19,17)        152.8163         estimate D2E/DX2                !
 ! D83   D(19,18,30,31)       -177.5471         estimate D2E/DX2                !
 ! D84   D(19,18,30,50)          3.1353         estimate D2E/DX2                !
 ! D85   D(34,18,30,31)          0.1229         estimate D2E/DX2                !
 ! D86   D(34,18,30,50)       -179.1947         estimate D2E/DX2                !
 ! D87   D(19,18,34,33)        177.6678         estimate D2E/DX2                !
 ! D88   D(19,18,34,54)         -3.0257         estimate D2E/DX2                !
 ! D89   D(30,18,34,33)         -0.0171         estimate D2E/DX2                !
 ! D90   D(30,18,34,54)        179.2894         estimate D2E/DX2                !
 ! D91   D(15,20,21,22)         -0.1751         estimate D2E/DX2                !
 ! D92   D(15,20,21,41)       -179.9381         estimate D2E/DX2                !
 ! D93   D(40,20,21,22)        178.9853         estimate D2E/DX2                !
 ! D94   D(40,20,21,41)         -0.7776         estimate D2E/DX2                !
 ! D95   D(20,21,22,23)          0.1125         estimate D2E/DX2                !
 ! D96   D(20,21,22,42)       -179.7205         estimate D2E/DX2                !
 ! D97   D(41,21,22,23)        179.8741         estimate D2E/DX2                !
 ! D98   D(41,21,22,42)          0.0411         estimate D2E/DX2                !
 ! D99   D(21,22,23,24)          0.1865         estimate D2E/DX2                !
 ! D100  D(21,22,23,43)       -179.7124         estimate D2E/DX2                !
 ! D101  D(42,22,23,24)       -179.9804         estimate D2E/DX2                !
 ! D102  D(42,22,23,43)          0.1207         estimate D2E/DX2                !
 ! D103  D(22,23,24,15)         -0.4193         estimate D2E/DX2                !
 ! D104  D(22,23,24,44)        179.9185         estimate D2E/DX2                !
 ! D105  D(43,23,24,15)        179.4801         estimate D2E/DX2                !
 ! D106  D(43,23,24,44)         -0.1821         estimate D2E/DX2                !
 ! D107  D(17,25,26,27)         -0.2503         estimate D2E/DX2                !
 ! D108  D(17,25,26,46)        178.9367         estimate D2E/DX2                !
 ! D109  D(45,25,26,27)       -178.6068         estimate D2E/DX2                !
 ! D110  D(45,25,26,46)          0.5802         estimate D2E/DX2                !
 ! D111  D(25,26,27,28)          0.6851         estimate D2E/DX2                !
 ! D112  D(25,26,27,47)        179.9882         estimate D2E/DX2                !
 ! D113  D(46,26,27,28)       -178.4944         estimate D2E/DX2                !
 ! D114  D(46,26,27,47)          0.8087         estimate D2E/DX2                !
 ! D115  D(26,27,28,29)         -0.3893         estimate D2E/DX2                !
 ! D116  D(26,27,28,48)        179.3168         estimate D2E/DX2                !
 ! D117  D(47,27,28,29)       -179.6932         estimate D2E/DX2                !
 ! D118  D(47,27,28,48)          0.0128         estimate D2E/DX2                !
 ! D119  D(27,28,29,17)         -0.3359         estimate D2E/DX2                !
 ! D120  D(27,28,29,49)        179.3153         estimate D2E/DX2                !
 ! D121  D(48,28,29,17)        179.9566         estimate D2E/DX2                !
 ! D122  D(48,28,29,49)         -0.3922         estimate D2E/DX2                !
 ! D123  D(18,30,31,32)         -0.0752         estimate D2E/DX2                !
 ! D124  D(18,30,31,51)       -179.7191         estimate D2E/DX2                !
 ! D125  D(50,30,31,32)        179.2483         estimate D2E/DX2                !
 ! D126  D(50,30,31,51)         -0.3956         estimate D2E/DX2                !
 ! D127  D(30,31,32,33)         -0.0781         estimate D2E/DX2                !
 ! D128  D(30,31,32,52)       -179.8246         estimate D2E/DX2                !
 ! D129  D(51,31,32,33)        179.5639         estimate D2E/DX2                !
 ! D130  D(51,31,32,52)         -0.1826         estimate D2E/DX2                !
 ! D131  D(31,32,33,34)          0.1848         estimate D2E/DX2                !
 ! D132  D(31,32,33,53)       -179.655          estimate D2E/DX2                !
 ! D133  D(52,32,33,34)        179.9313         estimate D2E/DX2                !
 ! D134  D(52,32,33,53)          0.0915         estimate D2E/DX2                !
 ! D135  D(32,33,34,18)         -0.1364         estimate D2E/DX2                !
 ! D136  D(32,33,34,54)       -179.4388         estimate D2E/DX2                !
 ! D137  D(53,33,34,18)        179.7042         estimate D2E/DX2                !
 ! D138  D(53,33,34,54)          0.4018         estimate D2E/DX2                !
 --------------------------------------------------------------------------------
 Stoichiometry    C26H20N3O3PS
 Framework group  C1[X(C26H20N3O3PS)]
 Deg. of freedom   156
 Full point group                 C1      NOp   1
 Largest Abelian subgroup         C1      NOp   1
 Largest concise Abelian subgroup C1      NOp   1
                         Standard orientation:                         
 ---------------------------------------------------------------------
 Center     Atomic      Atomic             Coordinates (Angstroms)
 Number     Number       Type             X           Y           Z
 ---------------------------------------------------------------------
      1          6           0       -2.479456    2.459882   -0.366027
      2          6           0       -2.363548    2.992120    0.907999
      3          6           0       -2.676631    2.199112    2.016156
      4          6           0       -3.117284    0.895484    1.848679
      5          6           0       -3.228868    0.372248    0.562777
      6          6           0       -2.907829    1.141977   -0.555668
      7          6           0       -3.073397    0.580803   -1.917751
      8          8           0       -2.302026   -2.355058   -0.993856
      9          8           0       -4.781635   -2.545904   -1.012036
     10         16           0       -3.603852   -1.706011   -1.001438
     11          7           0       -3.722929   -0.569728   -2.124237
     12          8           0       -3.715916   -0.907573    0.461461
     13          6           0       -1.125480    0.354364   -2.330062
     14          7           0       -0.161792   -0.188625   -1.950313
     15          6           0        2.086526    1.509622   -0.423941
     16          7           0        0.929195   -0.843575   -1.621735
     17          6           0        0.735809   -0.462888    1.225687
     18          6           0        3.210406   -1.204956   -0.201960
     19         15           0        1.690845   -0.248204   -0.293863
     20          6           0        1.078974    2.448912   -0.173562
     21          6           0        1.328477    3.802069   -0.370009
     22          6           0        2.581280    4.221718   -0.812038
     23          6           0        3.586234    3.289070   -1.060724
     24          6           0        3.341909    1.932823   -0.872325
     25          6           0       -0.226391   -1.475962    1.256545
     26          6           0       -0.938731   -1.714129    2.427199
     27          6           0       -0.689489   -0.949526    3.563407
     28          6           0        0.263552    0.067302    3.531689
     29          6           0        0.976039    0.316555    2.364216
     30          6           0        3.813888   -1.447404    1.035618
     31          6           0        5.015843   -2.144557    1.091368
     32          6           0        5.613036   -2.599595   -0.081942
     33          6           0        5.010095   -2.360819   -1.315087
     34          6           0        3.809195   -1.662597   -1.380887
     35          1           0       -2.225770    3.057744   -1.237611
     36          1           0       -2.030250    4.015576    1.043751
     37          1           0       -2.580272    2.603154    3.018681
     38          1           0       -3.370339    0.267787    2.695131
     39          1           0       -3.230557    1.312132   -2.704526
     40          1           0        0.106050    2.129328    0.186803
     41          1           0        0.545395    4.527684   -0.173963
     42          1           0        2.776491    5.279106   -0.960785
     43          1           0        4.563009    3.617601   -1.400507
     44          1           0        4.127679    1.209733   -1.068679
     45          1           0       -0.438267   -2.057985    0.365960
     46          1           0       -1.697100   -2.489762    2.442646
     47          1           0       -1.247326   -1.137715    4.475672
     48          1           0        0.449200    0.670015    4.414777
     49          1           0        1.709767    1.117001    2.340402
     50          1           0        3.346662   -1.105711    1.954194
     51          1           0        5.482070   -2.336822    2.052052
     52          1           0        6.549822   -3.145969   -0.034901
     53          1           0        5.473276   -2.720564   -2.228008
     54          1           0        3.329756   -1.481084   -2.336824
 ---------------------------------------------------------------------
 Rotational constants (GHZ):           0.1761867           0.0941533           0.0844146
 Electric field and nuclear coordinate derivatives read from checkpoint file.
 Rotating derivatives to standard orientation.
 Full mass-weighted force constant matrix:
 Low frequencies --- -350.0630   -3.7052   -0.0204    0.0042    0.0212    6.9295
 Low frequencies ---    9.1071   18.7621   27.4559
 ******    1 imaginary frequencies (negative Signs) ****** 
 Diagonal vibrational polarizability:
      376.9584509     104.6615722     157.7643484
 Harmonic frequencies (cm**-1), IR intensities (KM/Mole), Raman scattering
 activities (A**4/AMU), depolarization ratios for plane and unpolarized
 incident light, reduced masses (AMU), force constants (mDyne/A),
 and normal coordinates:
                      1                      2                      3
                      A                      A                      A
 Frequencies --   -350.0629                18.6283                27.3526
 Red. masses --     11.3255                 6.7182                 7.6616
 Frc consts  --      0.8177                 0.0014                 0.0034
 IR Inten    --    797.3683                 0.7230                 2.2844
  Atom  AN      X      Y      Z        X      Y      Z        X      Y      Z
     1   6     0.04   0.01   0.02    -0.00  -0.09   0.10    -0.02   0.04   0.04
     2   6    -0.01   0.02   0.02    -0.01  -0.14   0.12    -0.02   0.00   0.06
     3   6    -0.02   0.01   0.01    -0.07  -0.15   0.09     0.02  -0.05   0.03
     4   6    -0.02   0.02  -0.02    -0.12  -0.13   0.04     0.07  -0.06  -0.01
     5   6     0.01   0.01  -0.03    -0.10  -0.09   0.02     0.07  -0.02  -0.02
     6   6     0.11   0.01  -0.01    -0.05  -0.07   0.05     0.02   0.03  -0.00
     7   6     0.64  -0.11  -0.13    -0.04  -0.02   0.03     0.03   0.07  -0.02
     8   8     0.01  -0.04   0.05     0.01   0.02   0.02     0.15   0.07  -0.12
     9   8     0.02   0.00  -0.01     0.02  -0.10  -0.11     0.16  -0.03  -0.11
    10  16     0.02   0.04  -0.07    -0.02  -0.05  -0.04     0.13   0.02  -0.09
    11   7     0.04  -0.01   0.02    -0.02  -0.03  -0.02     0.07   0.05  -0.05
    12   8     0.03  -0.00   0.01    -0.14  -0.08  -0.03     0.11  -0.03  -0.06
    13   6    -0.42  -0.21   0.36    -0.04   0.03   0.02     0.03   0.14  -0.04
    14   7    -0.20  -0.00   0.09    -0.02   0.05   0.00    -0.03   0.06   0.01
    15   6    -0.00   0.01  -0.01     0.07   0.05  -0.03    -0.07  -0.01   0.00
    16   7    -0.11   0.12  -0.07    -0.01   0.07  -0.01    -0.09  -0.01   0.06
    17   6    -0.01  -0.00  -0.01     0.00   0.10  -0.02    -0.02   0.01   0.08
    18   6    -0.02  -0.01  -0.03    -0.03   0.02  -0.01    -0.07  -0.02   0.03
    19  15    -0.02   0.02  -0.00     0.00   0.06  -0.02    -0.06  -0.01   0.05
    20   6    -0.00   0.00   0.00     0.11   0.09  -0.06    -0.06  -0.01   0.04
    21   6    -0.00   0.00   0.00     0.17   0.08  -0.04    -0.08  -0.01  -0.02
    22   6     0.00  -0.00  -0.00     0.20   0.03  -0.01    -0.11  -0.02  -0.12
    23   6     0.00  -0.00  -0.00     0.17  -0.02   0.01    -0.12  -0.02  -0.15
    24   6     0.00  -0.00  -0.00     0.10  -0.01   0.00    -0.10  -0.02  -0.10
    25   6    -0.01  -0.01  -0.01     0.01   0.10   0.01    -0.00  -0.00   0.14
    26   6    -0.00  -0.00  -0.00     0.03   0.11   0.02     0.06   0.00   0.18
    27   6     0.00  -0.00  -0.01     0.04   0.12   0.01     0.10   0.02   0.16
    28   6     0.01  -0.00  -0.01     0.03   0.13  -0.02     0.08   0.04   0.10
    29   6    -0.00  -0.00  -0.01     0.01   0.12  -0.03     0.03   0.03   0.06
    30   6    -0.02   0.00  -0.02    -0.03   0.02  -0.01    -0.05  -0.01   0.02
    31   6    -0.02   0.01  -0.01    -0.05  -0.02   0.00    -0.06  -0.04  -0.00
    32   6    -0.01   0.01  -0.00    -0.07  -0.07   0.01    -0.10  -0.08  -0.01
    33   6    -0.01   0.00  -0.01    -0.07  -0.07   0.01    -0.13  -0.09   0.00
    34   6    -0.01  -0.00  -0.02    -0.05  -0.03  -0.00    -0.12  -0.06   0.02
    35   1     0.08   0.02   0.03     0.04  -0.08   0.12    -0.06   0.08   0.06
    36   1    -0.03   0.03   0.03     0.04  -0.16   0.16    -0.06   0.01   0.09
    37   1    -0.03   0.00   0.02    -0.08  -0.19   0.10     0.02  -0.08   0.05
    38   1    -0.04   0.01  -0.03    -0.17  -0.15   0.01     0.10  -0.10  -0.03
    39   1     0.26  -0.04   0.00    -0.05   0.01   0.06    -0.00   0.09   0.01
    40   1    -0.00   0.01   0.01     0.08   0.14  -0.08    -0.03  -0.00   0.11
    41   1     0.00   0.00   0.01     0.20   0.12  -0.06    -0.07  -0.01   0.01
    42   1     0.00  -0.00   0.00     0.26   0.02  -0.00    -0.12  -0.02  -0.16
    43   1     0.00   0.00   0.00     0.19  -0.06   0.03    -0.15  -0.03  -0.23
    44   1     0.00  -0.00  -0.00     0.07  -0.04   0.02    -0.11  -0.02  -0.13
    45   1    -0.04  -0.01  -0.00     0.00   0.08   0.02    -0.03  -0.01   0.15
    46   1    -0.01   0.01  -0.00     0.03   0.10   0.05     0.08  -0.01   0.23
    47   1     0.01   0.00  -0.00     0.05   0.13   0.02     0.15   0.02   0.19
    48   1     0.01   0.00  -0.01     0.04   0.14  -0.03     0.12   0.05   0.08
    49   1    -0.00  -0.00  -0.02     0.01   0.12  -0.05     0.02   0.04   0.01
    50   1    -0.03   0.00  -0.02    -0.01   0.05  -0.01    -0.01   0.01   0.02
    51   1    -0.02   0.02  -0.01    -0.06  -0.02   0.00    -0.04  -0.04  -0.01
    52   1    -0.01   0.01   0.00    -0.09  -0.10   0.02    -0.12  -0.10  -0.02
    53   1    -0.00   0.00  -0.00    -0.09  -0.11   0.01    -0.16  -0.12  -0.00
    54   1     0.00  -0.01  -0.03    -0.04  -0.03  -0.00    -0.14  -0.07   0.03
                      4                      5                      6
                      A                      A                      A
 Frequencies --     29.4582                31.5222                38.5178
 Red. masses --      5.3395                 4.5333                 5.2049
 Frc consts  --      0.0027                 0.0027                 0.0045
 IR Inten    --      0.7470                 0.0899                 0.4393
  Atom  AN      X      Y      Z        X      Y      Z        X      Y      Z
     1   6     0.07  -0.02   0.08    -0.01   0.01  -0.01    -0.04   0.01  -0.09
     2   6     0.05  -0.05   0.10     0.02   0.01  -0.01    -0.06   0.03  -0.10
     3   6    -0.03  -0.06   0.07     0.08   0.01  -0.00    -0.07   0.05  -0.09
     4   6    -0.08  -0.04   0.03     0.10  -0.00   0.01    -0.06   0.05  -0.06
     5   6    -0.05  -0.01   0.01     0.06  -0.00   0.01    -0.05   0.02  -0.06
     6   6     0.02   0.00   0.04     0.01   0.00   0.00    -0.04   0.00  -0.07
     7   6     0.03   0.04   0.02    -0.02  -0.00   0.01    -0.02  -0.03  -0.06
     8   8    -0.08   0.02  -0.01     0.03  -0.01  -0.03     0.00  -0.00   0.03
     9   8    -0.08   0.07  -0.11     0.03  -0.01   0.07     0.01  -0.03  -0.02
    10  16    -0.07   0.04  -0.05     0.03  -0.01   0.02    -0.00  -0.02  -0.01
    11   7    -0.00   0.07  -0.03    -0.02  -0.01   0.03     0.00  -0.04  -0.04
    12   8    -0.11   0.02  -0.04     0.09  -0.01   0.03    -0.04   0.02  -0.04
    13   6     0.04  -0.02   0.05    -0.03   0.02  -0.03    -0.00  -0.02  -0.01
    14   7     0.03  -0.04   0.03    -0.03   0.03  -0.04    -0.02  -0.02   0.03
    15   6     0.00  -0.03  -0.01    -0.01   0.02  -0.00    -0.00  -0.03   0.05
    16   7     0.03  -0.05   0.02    -0.02   0.04  -0.04    -0.04  -0.03   0.05
    17   6     0.02  -0.03   0.01    -0.05   0.00  -0.04     0.04  -0.01   0.06
    18   6     0.05   0.00   0.03    -0.04   0.02  -0.00     0.01  -0.02  -0.03
    19  15     0.03  -0.03   0.02    -0.04   0.03  -0.03    -0.00  -0.03   0.03
    20   6     0.02  -0.03   0.06     0.01   0.04  -0.01    -0.00  -0.03   0.05
    21   6    -0.01  -0.03   0.02     0.05   0.04   0.01     0.01  -0.03   0.11
    22   6    -0.05  -0.03  -0.11     0.07   0.01   0.04     0.03  -0.02   0.16
    23   6    -0.07  -0.03  -0.18     0.05  -0.01   0.05     0.03  -0.02   0.15
    24   6    -0.04  -0.02  -0.13     0.01  -0.01   0.03     0.01  -0.02   0.09
    25   6    -0.02   0.01  -0.02     0.02  -0.06  -0.04    -0.03   0.05   0.08
    26   6    -0.04   0.02  -0.03     0.03  -0.12  -0.05    -0.03   0.10   0.09
    27   6    -0.02  -0.01  -0.01    -0.02  -0.10  -0.04     0.03   0.09   0.08
    28   6     0.02  -0.05   0.01    -0.09  -0.04  -0.04     0.10   0.03   0.06
    29   6     0.04  -0.06   0.03    -0.11   0.02  -0.04     0.10  -0.02   0.05
    30   6     0.12   0.15   0.02     0.03   0.19  -0.01     0.12   0.07  -0.07
    31   6     0.15   0.19   0.03     0.03   0.19   0.02     0.14   0.10  -0.13
    32   6     0.10   0.09   0.04    -0.05   0.01   0.05     0.04   0.03  -0.15
    33   6     0.03  -0.06   0.05    -0.12  -0.16   0.05    -0.07  -0.07  -0.11
    34   6     0.00  -0.10   0.04    -0.12  -0.16   0.03    -0.09  -0.09  -0.05
    35   1     0.13  -0.01   0.11    -0.06   0.02  -0.02    -0.04  -0.01  -0.10
    36   1     0.09  -0.07   0.13     0.00   0.02  -0.02    -0.07   0.04  -0.12
    37   1    -0.04  -0.09   0.08     0.10   0.01  -0.01    -0.08   0.07  -0.09
    38   1    -0.13  -0.05   0.00     0.14  -0.01   0.02    -0.06   0.06  -0.05
    39   1     0.08   0.07   0.03    -0.05  -0.00   0.01    -0.01  -0.05  -0.08
    40   1     0.05  -0.03   0.15    -0.01   0.06  -0.04    -0.01  -0.03   0.02
    41   1     0.00  -0.04   0.07     0.06   0.06   0.00     0.02  -0.03   0.11
    42   1    -0.08  -0.03  -0.15     0.10   0.01   0.06     0.04  -0.02   0.21
    43   1    -0.10  -0.02  -0.28     0.07  -0.03   0.08     0.04  -0.01   0.19
    44   1    -0.05  -0.02  -0.19    -0.00  -0.02   0.04     0.01  -0.02   0.08
    45   1    -0.03   0.03  -0.03     0.06  -0.08  -0.05    -0.08   0.06   0.08
    46   1    -0.07   0.05  -0.05     0.09  -0.17  -0.05    -0.08   0.15   0.10
    47   1    -0.04  -0.00  -0.02    -0.01  -0.15  -0.04     0.03   0.14   0.09
    48   1     0.03  -0.07   0.03    -0.14  -0.02  -0.04     0.16   0.02   0.06
    49   1     0.06  -0.08   0.04    -0.16   0.07  -0.04     0.15  -0.07   0.04
    50   1     0.16   0.22   0.01     0.09   0.33  -0.03     0.19   0.13  -0.05
    51   1     0.21   0.30   0.02     0.09   0.33   0.02     0.23   0.18  -0.15
    52   1     0.12   0.12   0.05    -0.05   0.01   0.07     0.06   0.05  -0.19
    53   1    -0.01  -0.14   0.06    -0.18  -0.30   0.08    -0.15  -0.12  -0.13
    54   1    -0.05  -0.21   0.05    -0.18  -0.28   0.03    -0.17  -0.16  -0.02
                      7                      8                      9
                      A                      A                      A
 Frequencies --     52.4220                54.6470                61.3944
 Red. masses --      5.0718                 5.3152                 5.4430
 Frc consts  --      0.0082                 0.0094                 0.0121
 IR Inten    --      2.1002                 1.7122                 2.1911
  Atom  AN      X      Y      Z        X      Y      Z        X      Y      Z
     1   6     0.00   0.01   0.03     0.06  -0.05  -0.09     0.02  -0.02   0.00
     2   6     0.04  -0.02   0.05     0.14  -0.05  -0.09     0.07  -0.04   0.01
     3   6     0.07  -0.05   0.03     0.18  -0.04  -0.08     0.10  -0.06   0.00
     4   6     0.06  -0.04   0.01     0.12  -0.03  -0.05     0.07  -0.05  -0.01
     5   6     0.03  -0.01   0.00     0.03  -0.02  -0.05     0.02  -0.02  -0.01
     6   6     0.00   0.01   0.01     0.01  -0.04  -0.06     0.01  -0.01  -0.01
     7   6    -0.02   0.04   0.00    -0.04  -0.05  -0.05    -0.00   0.00  -0.01
     8   8    -0.02   0.02  -0.08    -0.08  -0.05  -0.03    -0.11  -0.04  -0.06
     9   8    -0.03   0.04  -0.03    -0.08  -0.00   0.02    -0.12   0.07  -0.03
    10  16    -0.02   0.03  -0.04    -0.07  -0.03  -0.02    -0.08   0.01  -0.04
    11   7    -0.03   0.05  -0.01    -0.07  -0.04  -0.03    -0.05   0.03  -0.02
    12   8     0.02  -0.01  -0.02    -0.02  -0.01  -0.02    -0.01  -0.01  -0.02
    13   6    -0.03   0.01  -0.02    -0.05  -0.06  -0.07    -0.01  -0.07   0.00
    14   7    -0.05  -0.03  -0.01    -0.04  -0.01  -0.02     0.01  -0.04  -0.01
    15   6    -0.02  -0.07  -0.03    -0.01   0.03   0.01    -0.01   0.03  -0.02
    16   7    -0.08  -0.07   0.01    -0.03   0.03   0.02     0.04  -0.00  -0.02
    17   6    -0.05  -0.02   0.01    -0.03   0.03   0.02     0.04   0.03  -0.02
    18   6    -0.05  -0.03   0.00    -0.05   0.04   0.02     0.03   0.02   0.00
    19  15    -0.06  -0.06  -0.00    -0.04   0.04   0.01     0.03   0.02  -0.03
    20   6    -0.03  -0.05  -0.15     0.06   0.07   0.15    -0.09  -0.03  -0.12
    21   6     0.02  -0.05  -0.15     0.11   0.07   0.16    -0.16  -0.01  -0.09
    22   6     0.07  -0.09  -0.02     0.08   0.02   0.04    -0.13   0.06   0.05
    23   6     0.08  -0.11   0.11     0.01  -0.02  -0.10    -0.05   0.12   0.16
    24   6     0.04  -0.10   0.10    -0.04  -0.01  -0.11     0.01   0.11   0.12
    25   6    -0.02  -0.05   0.08    -0.04   0.05   0.02     0.04   0.04   0.01
    26   6     0.03  -0.03   0.11     0.02  -0.01   0.05     0.10   0.03   0.04
    27   6     0.03   0.02   0.07     0.09  -0.07   0.08     0.16   0.01   0.04
    28   6    -0.01   0.05   0.01     0.09  -0.07   0.07     0.15   0.01   0.01
    29   6    -0.05   0.03  -0.02     0.03  -0.02   0.05     0.09   0.02  -0.03
    30   6    -0.04  -0.00   0.00    -0.07   0.00   0.03     0.01   0.04   0.02
    31   6     0.03   0.12  -0.00    -0.06   0.02   0.03    -0.03  -0.03   0.05
    32   6     0.09   0.22  -0.01    -0.03   0.07   0.03    -0.05  -0.12   0.08
    33   6     0.08   0.18  -0.01    -0.00   0.10   0.03    -0.02  -0.12   0.06
    34   6     0.01   0.06  -0.00    -0.01   0.08   0.02     0.02  -0.05   0.03
    35   1    -0.02   0.03   0.04     0.04  -0.06  -0.10     0.01  -0.00   0.00
    36   1     0.05  -0.02   0.06     0.18  -0.06  -0.11     0.08  -0.04   0.01
    37   1     0.10  -0.07   0.04     0.25  -0.05  -0.08     0.14  -0.08   0.01
    38   1     0.08  -0.06   0.00     0.15  -0.02  -0.04     0.09  -0.06  -0.01
    39   1    -0.02   0.06   0.02    -0.05  -0.05  -0.06     0.03   0.01  -0.01
    40   1    -0.07  -0.02  -0.23     0.09   0.11   0.23    -0.10  -0.08  -0.21
    41   1     0.01  -0.04  -0.24     0.17   0.10   0.27    -0.22  -0.06  -0.17
    42   1     0.11  -0.09  -0.02     0.12   0.02   0.05    -0.17   0.08   0.08
    43   1     0.13  -0.13   0.21    -0.01  -0.05  -0.20    -0.03   0.18   0.27
    44   1     0.05  -0.12   0.20    -0.09  -0.04  -0.21     0.07   0.15   0.19
    45   1    -0.02  -0.09   0.10    -0.09   0.08   0.01     0.00   0.04   0.01
    46   1     0.06  -0.06   0.16     0.01  -0.00   0.05     0.10   0.03   0.07
    47   1     0.07   0.03   0.10     0.14  -0.11   0.10     0.21  -0.01   0.07
    48   1    -0.00   0.10  -0.02     0.15  -0.12   0.10     0.20   0.00   0.00
    49   1    -0.07   0.05  -0.07     0.04  -0.03   0.05     0.09   0.03  -0.06
    50   1    -0.08  -0.07   0.01    -0.09  -0.03   0.03     0.03   0.10   0.00
    51   1     0.04   0.14  -0.00    -0.08  -0.01   0.04    -0.05  -0.02   0.07
    52   1     0.15   0.32  -0.01    -0.02   0.09   0.03    -0.09  -0.18   0.10
    53   1     0.13   0.25  -0.01     0.02   0.14   0.02    -0.04  -0.19   0.08
    54   1     0.00   0.04  -0.00     0.00   0.10   0.02     0.04  -0.06   0.02
                     10                     11                     12
                      A                      A                      A
 Frequencies --     75.8585                76.2986                85.2672
 Red. masses --      5.3006                 5.5055                 7.7468
 Frc consts  --      0.0180                 0.0189                 0.0332
 IR Inten    --      0.1618                 0.6890                 0.5682
  Atom  AN      X      Y      Z        X      Y      Z        X      Y      Z
     1   6     0.18  -0.06   0.00    -0.03   0.02   0.05     0.01  -0.02   0.03
     2   6     0.23  -0.08   0.01    -0.07   0.02   0.05     0.01  -0.03   0.03
     3   6     0.18  -0.06   0.00    -0.07   0.01   0.04     0.05  -0.05   0.03
     4   6     0.05  -0.02  -0.00    -0.01  -0.01   0.03     0.11  -0.07   0.02
     5   6     0.00  -0.00  -0.00     0.05  -0.02   0.03     0.14  -0.07   0.02
     6   6     0.07  -0.03  -0.00     0.03   0.00   0.04     0.07  -0.04   0.03
     7   6     0.03  -0.01  -0.01     0.01   0.02   0.03     0.03  -0.01   0.03
     8   8     0.04   0.07   0.10     0.01  -0.04  -0.10    -0.09  -0.20  -0.22
     9   8     0.05  -0.04  -0.03     0.00   0.03   0.04    -0.11   0.09   0.06
    10  16     0.01   0.01   0.02     0.02  -0.00  -0.00    -0.01  -0.04  -0.04
    11   7     0.02  -0.01  -0.00    -0.01   0.03   0.03    -0.00   0.01   0.02
    12   8    -0.11   0.04  -0.01     0.13  -0.04   0.03     0.26  -0.11   0.03
    13   6     0.02  -0.02  -0.04    -0.00  -0.01  -0.03     0.03  -0.04  -0.01
    14   7     0.01  -0.03  -0.02    -0.01  -0.05  -0.08     0.03  -0.01   0.04
    15   6    -0.03  -0.01   0.00    -0.04  -0.05  -0.10     0.02   0.03   0.06
    16   7    -0.01  -0.03   0.00    -0.02  -0.08  -0.09     0.03   0.01   0.08
    17   6    -0.01   0.00   0.00    -0.01   0.01  -0.08    -0.02   0.04   0.05
    18   6    -0.00  -0.01  -0.02    -0.01  -0.03  -0.04     0.02   0.02   0.03
    19  15    -0.01  -0.02  -0.00    -0.02  -0.05  -0.10     0.02   0.03   0.08
    20   6    -0.04  -0.04   0.05    -0.01  -0.05   0.06     0.02   0.03   0.02
    21   6    -0.08  -0.03   0.10     0.02  -0.04   0.21     0.00   0.02  -0.05
    22   6    -0.09   0.01   0.10     0.01  -0.01   0.20    -0.00   0.01  -0.08
    23   6    -0.08   0.04   0.04    -0.03  -0.01   0.02     0.01   0.01  -0.02
    24   6    -0.05   0.03  -0.00    -0.06  -0.03  -0.12     0.02   0.02   0.05
    25   6     0.04  -0.04   0.04    -0.05   0.05  -0.03    -0.10   0.11  -0.01
    26   6    -0.01   0.01   0.02    -0.03   0.12   0.00    -0.18   0.15  -0.05
    27   6    -0.12   0.13  -0.03     0.03   0.15  -0.03    -0.20   0.14  -0.03
    28   6    -0.17   0.17  -0.07     0.07   0.11  -0.09    -0.13   0.07   0.02
    29   6    -0.11   0.10  -0.04     0.05   0.03  -0.11    -0.04   0.02   0.07
    30   6     0.01  -0.02  -0.03    -0.06   0.00  -0.00     0.07  -0.02  -0.00
    31   6     0.01  -0.02  -0.05    -0.05   0.04   0.07     0.06  -0.04  -0.08
    32   6    -0.01  -0.01  -0.06     0.02   0.03   0.11    -0.01  -0.03  -0.12
    33   6    -0.02  -0.00  -0.05     0.07  -0.01   0.07    -0.06   0.00  -0.08
    34   6    -0.02  -0.00  -0.03     0.06  -0.04   0.00    -0.05   0.03  -0.01
    35   1     0.23  -0.08   0.01    -0.04   0.03   0.05    -0.04   0.01   0.03
    36   1     0.33  -0.11   0.01    -0.12   0.04   0.06    -0.03  -0.01   0.04
    37   1     0.23  -0.08   0.01    -0.12   0.02   0.05     0.03  -0.05   0.03
    38   1     0.00  -0.00  -0.01    -0.01  -0.02   0.03     0.12  -0.08   0.02
    39   1     0.02  -0.01   0.00    -0.00   0.03   0.05     0.04   0.00   0.04
    40   1    -0.02  -0.07   0.06     0.00  -0.07   0.07     0.02   0.04   0.03
    41   1    -0.09  -0.05   0.13     0.05  -0.04   0.34    -0.00   0.02  -0.09
    42   1    -0.11   0.02   0.14     0.03   0.00   0.34    -0.01   0.01  -0.14
    43   1    -0.09   0.07   0.04    -0.05   0.00   0.01     0.01   0.00  -0.04
    44   1    -0.04   0.05  -0.04    -0.08  -0.02  -0.24     0.03   0.01   0.08
    45   1     0.10  -0.12   0.07    -0.09   0.02  -0.00    -0.09   0.12  -0.02
    46   1     0.03  -0.03   0.05    -0.06   0.16   0.05    -0.24   0.22  -0.10
    47   1    -0.16   0.18  -0.05     0.04   0.21  -0.02    -0.27   0.18  -0.07
    48   1    -0.25   0.26  -0.11     0.12   0.13  -0.12    -0.14   0.07   0.03
    49   1    -0.14   0.13  -0.07     0.09  -0.00  -0.15     0.01  -0.02   0.11
    50   1     0.02  -0.02  -0.02    -0.12   0.01  -0.03     0.12  -0.02   0.03
    51   1     0.02  -0.03  -0.06    -0.09   0.07   0.10     0.11  -0.07  -0.11
    52   1    -0.01  -0.02  -0.08     0.04   0.06   0.16    -0.02  -0.06  -0.17
    53   1    -0.03   0.00  -0.06     0.13  -0.02   0.10    -0.12   0.01  -0.11
    54   1    -0.03   0.00  -0.02     0.10  -0.08  -0.03    -0.10   0.06   0.02
                     13                     14                     15
                      A                      A                      A
 Frequencies --     93.3426               124.0488               138.6301
 Red. masses --      4.6656                 7.9552                 7.1761
 Frc consts  --      0.0240                 0.0721                 0.0813
 IR Inten    --      1.8414                 1.2624                 3.2984
  Atom  AN      X      Y      Z        X      Y      Z        X      Y      Z
     1   6    -0.08   0.03  -0.02    -0.20   0.05  -0.04    -0.21   0.07  -0.02
     2   6    -0.11   0.04  -0.01    -0.03   0.01  -0.03    -0.04   0.01  -0.01
     3   6    -0.08   0.02  -0.02     0.16  -0.05  -0.02     0.19  -0.08  -0.00
     4   6    -0.02   0.00  -0.02     0.14  -0.05  -0.01     0.18  -0.07  -0.01
     5   6    -0.01   0.00  -0.02    -0.03  -0.00  -0.01    -0.02   0.00  -0.02
     6   6    -0.03   0.01  -0.02    -0.18   0.04  -0.02    -0.15   0.05  -0.02
     7   6     0.00   0.01  -0.01    -0.18   0.03  -0.01    -0.00   0.01  -0.02
     8   8    -0.09  -0.07  -0.05     0.08   0.24  -0.18    -0.06  -0.18   0.19
     9   8    -0.11   0.08  -0.02     0.11  -0.15   0.05    -0.07   0.07  -0.08
    10  16    -0.05   0.01  -0.03    -0.02   0.04  -0.04     0.01  -0.04   0.02
    11   7    -0.01   0.02  -0.03    -0.25   0.06   0.01     0.19  -0.10  -0.06
    12   8     0.03  -0.01  -0.02    -0.01  -0.01  -0.01    -0.05   0.01  -0.02
    13   6     0.02  -0.03   0.05    -0.16  -0.14   0.18     0.01   0.30   0.15
    14   7     0.02  -0.03   0.05    -0.07  -0.02   0.13    -0.02   0.18   0.06
    15   6     0.01   0.01   0.00     0.05  -0.01   0.04     0.02  -0.03   0.02
    16   7     0.02  -0.02   0.04     0.00   0.04   0.02    -0.04   0.09  -0.04
    17   6     0.05  -0.01   0.03     0.07  -0.03   0.02     0.02  -0.02  -0.02
    18   6     0.04   0.01   0.00     0.06  -0.03  -0.01    -0.01  -0.06  -0.03
    19  15     0.03   0.00   0.02     0.06  -0.02   0.01     0.01  -0.02  -0.02
    20   6     0.03   0.02   0.06     0.04  -0.03   0.05     0.01  -0.04   0.03
    21   6     0.05   0.02   0.08     0.01  -0.03   0.02    -0.01  -0.04   0.01
    22   6     0.03   0.01   0.03    -0.02  -0.01  -0.02    -0.03  -0.03  -0.01
    23   6     0.00  -0.00  -0.05    -0.00   0.01  -0.03    -0.01  -0.01  -0.01
    24   6    -0.01  -0.00  -0.06     0.03   0.01  -0.00     0.01  -0.02   0.00
    25   6     0.18  -0.14   0.09     0.04   0.00  -0.01    -0.01   0.01  -0.02
    26   6     0.19  -0.15   0.10    -0.03   0.05  -0.05    -0.03   0.05  -0.02
    27   6     0.04   0.00   0.03    -0.08   0.07  -0.05    -0.03   0.06  -0.03
    28   6    -0.11   0.14  -0.03    -0.04   0.04  -0.02     0.00   0.04  -0.04
    29   6    -0.09   0.12  -0.03     0.03  -0.01   0.01     0.02  -0.00  -0.03
    30   6     0.04  -0.02  -0.01     0.05  -0.02   0.00    -0.03  -0.03  -0.01
    31   6     0.03  -0.05  -0.02     0.05  -0.03   0.03    -0.00   0.02   0.02
    32   6     0.01  -0.04  -0.03     0.06  -0.04   0.04     0.04   0.03   0.04
    33   6     0.01  -0.01  -0.03     0.08  -0.04   0.03     0.05  -0.02   0.03
    34   6     0.02   0.02  -0.01     0.08  -0.04   0.01     0.02  -0.06  -0.01
    35   1    -0.11   0.04  -0.01    -0.32   0.09  -0.05    -0.34   0.12  -0.02
    36   1    -0.16   0.05  -0.01    -0.04   0.01  -0.04    -0.07   0.02  -0.00
    37   1    -0.10   0.03  -0.02     0.31  -0.09  -0.02     0.37  -0.14   0.01
    38   1     0.01  -0.01  -0.02     0.26  -0.07   0.01     0.31  -0.12  -0.01
    39   1     0.04   0.00  -0.03    -0.11   0.02  -0.04    -0.06  -0.03  -0.05
    40   1     0.04   0.03   0.09     0.04  -0.04   0.06     0.01  -0.05   0.04
    41   1     0.07   0.03   0.14    -0.00  -0.04   0.03    -0.02  -0.05   0.02
    42   1     0.04   0.01   0.04    -0.04  -0.01  -0.05    -0.05  -0.03  -0.02
    43   1    -0.01  -0.01  -0.10    -0.02   0.03  -0.07    -0.02  -0.00  -0.03
    44   1    -0.03  -0.01  -0.11     0.04   0.02  -0.01     0.02  -0.01  -0.01
    45   1     0.28  -0.23   0.13     0.06  -0.00  -0.02    -0.02  -0.00  -0.01
    46   1     0.32  -0.26   0.15    -0.06   0.07  -0.08    -0.05   0.07  -0.02
    47   1     0.04   0.00   0.03    -0.14   0.11  -0.09    -0.05   0.10  -0.04
    48   1    -0.23   0.25  -0.09    -0.08   0.05  -0.03     0.00   0.05  -0.05
    49   1    -0.19   0.21  -0.07     0.05  -0.03   0.03     0.04  -0.02  -0.04
    50   1     0.05  -0.02  -0.00     0.04  -0.01  -0.00    -0.05  -0.03  -0.03
    51   1     0.03  -0.07  -0.03     0.03  -0.02   0.04    -0.01   0.05   0.03
    52   1    -0.00  -0.07  -0.05     0.06  -0.05   0.06     0.06   0.07   0.06
    53   1    -0.00  -0.00  -0.04     0.09  -0.05   0.04     0.08  -0.02   0.04
    54   1     0.02   0.04  -0.00     0.10  -0.04  -0.00     0.04  -0.09  -0.02
                     16                     17                     18
                      A                      A                      A
 Frequencies --    159.3585               192.0262               197.7037
 Red. masses --      6.2007                 6.0145                 4.7443
 Frc consts  --      0.0928                 0.1307                 0.1093
 IR Inten    --      1.6795                 5.1999                 0.4172
  Atom  AN      X      Y      Z        X      Y      Z        X      Y      Z
     1   6     0.10  -0.06  -0.02    -0.11   0.04   0.02    -0.03   0.01  -0.00
     2   6     0.05  -0.02  -0.03    -0.13   0.03   0.03    -0.03   0.01  -0.00
     3   6    -0.08   0.03  -0.03     0.05  -0.03   0.03    -0.01   0.00   0.00
     4   6    -0.10   0.04  -0.01     0.12  -0.06   0.02     0.01  -0.00   0.00
     5   6    -0.01  -0.01  -0.00     0.03  -0.01   0.01    -0.00   0.00   0.00
     6   6     0.04  -0.04  -0.00     0.01   0.00   0.01    -0.01   0.00   0.00
     7   6    -0.03  -0.02  -0.01     0.06  -0.01   0.00     0.01  -0.00   0.00
     8   8    -0.02  -0.00  -0.09     0.01   0.06   0.08     0.01   0.02   0.00
     9   8    -0.02  -0.02   0.07     0.01  -0.00  -0.04     0.01  -0.01  -0.00
    10  16    -0.03  -0.01   0.00    -0.01   0.03   0.01    -0.00   0.00   0.00
    11   7    -0.09  -0.00   0.02     0.01   0.01   0.00    -0.00   0.00   0.00
    12   8     0.04  -0.03   0.02    -0.07   0.03  -0.00    -0.01   0.00   0.00
    13   6    -0.07   0.07  -0.08     0.05  -0.16   0.02     0.02  -0.04   0.04
    14   7     0.01   0.21  -0.08     0.14  -0.10  -0.13     0.04  -0.02   0.01
    15   6     0.09  -0.02   0.20    -0.05   0.01   0.12     0.11  -0.02  -0.03
    16   7     0.05   0.25  -0.14     0.23   0.03  -0.16     0.05  -0.01   0.00
    17   6    -0.00  -0.07  -0.02    -0.14  -0.05  -0.09    -0.10   0.18  -0.05
    18   6    -0.04  -0.10  -0.04     0.02   0.06   0.06    -0.08  -0.15   0.10
    19  15     0.01  -0.01  -0.01    -0.02  -0.01  -0.00     0.02   0.00   0.02
    20   6     0.06  -0.05   0.17    -0.02   0.06   0.10     0.06  -0.08  -0.01
    21   6    -0.03  -0.06   0.01     0.02   0.04   0.01    -0.03  -0.06   0.03
    22   6    -0.09  -0.04  -0.13     0.02  -0.03  -0.07    -0.06   0.02   0.04
    23   6    -0.03  -0.00  -0.03    -0.01  -0.07  -0.01    -0.01   0.08  -0.02
    24   6     0.06   0.00   0.14    -0.04  -0.04   0.10     0.08   0.05  -0.05
    25   6     0.01  -0.07   0.05    -0.15  -0.03   0.01    -0.07   0.15  -0.08
    26   6     0.03  -0.01   0.08    -0.06   0.01   0.08     0.04   0.00  -0.05
    27   6     0.03   0.07   0.03     0.06   0.03   0.05     0.10  -0.10   0.01
    28   6     0.03   0.06  -0.04     0.05   0.03  -0.06    -0.01   0.00   0.01
    29   6     0.02  -0.01  -0.06    -0.06  -0.01  -0.13    -0.11   0.15  -0.02
    30   6    -0.06  -0.06  -0.02     0.06   0.04   0.03    -0.03  -0.17   0.07
    31   6    -0.01   0.03   0.02     0.03  -0.02  -0.02     0.06  -0.03  -0.02
    32   6     0.05   0.06   0.03    -0.03  -0.04  -0.05     0.08   0.11  -0.06
    33   6     0.04  -0.02   0.02    -0.05   0.03  -0.03    -0.04   0.02  -0.02
    34   6    -0.00  -0.10  -0.02    -0.02   0.08   0.03    -0.13  -0.12   0.06
    35   1     0.18  -0.10  -0.02    -0.20   0.09   0.02    -0.04   0.02  -0.00
    36   1     0.10  -0.04  -0.04    -0.24   0.07   0.03    -0.06   0.02  -0.00
    37   1    -0.15   0.07  -0.03     0.10  -0.06   0.03    -0.00   0.00   0.00
    38   1    -0.16   0.07  -0.00     0.20  -0.09   0.01     0.04  -0.01   0.00
    39   1    -0.09  -0.00   0.02     0.12  -0.01  -0.01     0.04  -0.01  -0.01
    40   1     0.09  -0.07   0.23    -0.03   0.11   0.13     0.08  -0.14  -0.02
    41   1    -0.07  -0.08  -0.04     0.05   0.08  -0.02    -0.07  -0.12   0.06
    42   1    -0.17  -0.05  -0.30     0.03  -0.04  -0.17    -0.11   0.03   0.07
    43   1    -0.06   0.02  -0.10    -0.01  -0.12  -0.06    -0.04   0.15  -0.02
    44   1     0.09   0.02   0.18    -0.07  -0.07   0.13     0.11   0.10  -0.08
    45   1    -0.01  -0.12   0.08    -0.23  -0.06   0.04    -0.07   0.19  -0.10
    46   1     0.04  -0.02   0.14    -0.06   0.02   0.17     0.09  -0.06  -0.05
    47   1     0.04   0.12   0.04     0.15   0.05   0.11     0.22  -0.25   0.05
    48   1     0.04   0.12  -0.08     0.14   0.06  -0.10     0.00  -0.05   0.04
    49   1     0.02  -0.02  -0.11    -0.05  -0.02  -0.21    -0.15   0.18  -0.01
    50   1    -0.09  -0.07  -0.03     0.10   0.04   0.05    -0.03  -0.23   0.10
    51   1    -0.01   0.08   0.03     0.05  -0.06  -0.04     0.13  -0.01  -0.05
    52   1     0.10   0.15   0.06    -0.07  -0.10  -0.08     0.17   0.27  -0.13
    53   1     0.08  -0.01   0.04    -0.09   0.03  -0.05    -0.06   0.09  -0.06
    54   1     0.01  -0.13  -0.03    -0.04   0.11   0.05    -0.20  -0.15   0.09
                     19                     20                     21
                      A                      A                      A
 Frequencies --    222.8072               251.6009               253.5528
 Red. masses --      5.8832                 5.4434                 5.7480
 Frc consts  --      0.1721                 0.2030                 0.2177
 IR Inten    --      3.3763                 2.0179                13.1774
  Atom  AN      X      Y      Z        X      Y      Z        X      Y      Z
     1   6     0.05  -0.01  -0.03    -0.00   0.01   0.01     0.02  -0.04  -0.01
     2   6     0.21  -0.04  -0.03    -0.01   0.01   0.01    -0.09   0.00  -0.02
     3   6     0.02   0.03  -0.03    -0.01   0.01   0.01    -0.04  -0.00  -0.01
     4   6    -0.17   0.10  -0.01     0.00   0.00   0.00     0.08  -0.04  -0.00
     5   6    -0.13   0.05  -0.00     0.00   0.01  -0.00     0.07  -0.05   0.00
     6   6    -0.14   0.05   0.00    -0.00   0.01   0.00     0.09  -0.06  -0.00
     7   6    -0.07   0.01   0.02    -0.02   0.01   0.01     0.04  -0.02  -0.02
     8   8     0.01  -0.06  -0.13     0.00  -0.02   0.02    -0.01   0.06   0.01
     9   8     0.02  -0.02   0.06     0.01   0.01  -0.03    -0.02  -0.02   0.03
    10  16     0.02  -0.03  -0.01     0.01  -0.00  -0.00    -0.04   0.01   0.01
    11   7     0.01  -0.03  -0.01     0.02   0.00  -0.00    -0.05   0.01   0.01
    12   8     0.08  -0.03   0.00     0.01   0.01  -0.01    -0.05  -0.00   0.01
    13   6     0.02   0.14   0.28    -0.00  -0.03  -0.03    -0.04   0.09  -0.10
    14   7     0.03   0.04   0.11    -0.06  -0.08   0.04    -0.01   0.17  -0.04
    15   6    -0.05  -0.02  -0.02     0.10  -0.08   0.11     0.02  -0.05  -0.07
    16   7     0.06  -0.01  -0.05    -0.07  -0.08   0.08    -0.04   0.12  -0.04
    17   6    -0.12   0.00  -0.08     0.02   0.11  -0.03    -0.09   0.07   0.03
    18   6     0.05   0.07   0.07     0.01   0.11  -0.05     0.11   0.05  -0.05
    19  15    -0.01  -0.02   0.00     0.00   0.01  -0.00     0.00  -0.01   0.00
    20   6    -0.04  -0.01  -0.03     0.07  -0.15   0.16    -0.01  -0.09  -0.09
    21   6    -0.01  -0.01   0.00    -0.02  -0.16   0.06    -0.02  -0.08  -0.00
    22   6     0.01  -0.03   0.03    -0.08  -0.14  -0.09     0.00  -0.05   0.08
    23   6    -0.01  -0.05   0.00     0.00  -0.08   0.01     0.00  -0.03  -0.01
    24   6    -0.04  -0.04  -0.03     0.10  -0.08   0.13     0.01  -0.04  -0.10
    25   6    -0.12   0.00  -0.03     0.03   0.11  -0.09    -0.12   0.10   0.04
    26   6    -0.01  -0.02   0.04     0.06   0.02  -0.10    -0.05   0.00   0.07
    27   6     0.09  -0.04   0.03     0.08  -0.04  -0.06     0.01  -0.09   0.12
    28   6     0.03   0.01  -0.05     0.01   0.03  -0.03    -0.08  -0.01   0.08
    29   6    -0.08   0.03  -0.11    -0.01   0.11  -0.02    -0.14   0.07   0.05
    30   6     0.09   0.05   0.05    -0.02   0.16  -0.04     0.13   0.08  -0.05
    31   6     0.05  -0.03  -0.01    -0.09   0.07   0.00     0.08  -0.03  -0.01
    32   6    -0.02  -0.07  -0.03    -0.14  -0.04   0.02     0.05  -0.15   0.02
    33   6    -0.02   0.02  -0.01    -0.04   0.05  -0.01     0.12  -0.04   0.01
    34   6     0.02   0.09   0.04     0.02   0.14  -0.05     0.17   0.06  -0.03
    35   1     0.15  -0.07  -0.04     0.00   0.02   0.01     0.01  -0.04  -0.02
    36   1     0.43  -0.11  -0.04    -0.02   0.01   0.02    -0.20   0.04  -0.03
    37   1     0.08   0.03  -0.03    -0.02   0.00   0.01    -0.10   0.02  -0.02
    38   1    -0.22   0.14   0.01     0.01  -0.00  -0.00     0.09  -0.05  -0.00
    39   1    -0.02  -0.02  -0.02    -0.02   0.01   0.00    -0.04   0.01   0.03
    40   1    -0.04  -0.00  -0.04     0.10  -0.19   0.21    -0.01  -0.12  -0.12
    41   1     0.01   0.00   0.01    -0.04  -0.18   0.05    -0.03  -0.10   0.02
    42   1     0.04  -0.03   0.08    -0.17  -0.15  -0.24     0.01  -0.04   0.19
    43   1    -0.00  -0.06   0.01    -0.03  -0.03  -0.03    -0.01   0.00   0.00
    44   1    -0.06  -0.05  -0.03     0.12  -0.06   0.17     0.01  -0.03  -0.13
    45   1    -0.16  -0.01  -0.01     0.05   0.15  -0.12    -0.17   0.13   0.03
    46   1     0.01  -0.04   0.10     0.09  -0.00  -0.12    -0.03  -0.02   0.06
    47   1     0.20  -0.09   0.09     0.13  -0.13  -0.06     0.11  -0.20   0.17
    48   1     0.09   0.01  -0.07    -0.02  -0.01  -0.00    -0.07  -0.02   0.09
    49   1    -0.10   0.05  -0.17    -0.03   0.13   0.00    -0.18   0.11   0.07
    50   1     0.14   0.07   0.07    -0.02   0.23  -0.06     0.16   0.13  -0.05
    51   1     0.07  -0.07  -0.02    -0.11   0.04   0.01     0.04  -0.03   0.01
    52   1    -0.07  -0.16  -0.06    -0.22  -0.18   0.05    -0.03  -0.29   0.05
    53   1    -0.07   0.02  -0.03    -0.02   0.02   0.01     0.12  -0.06   0.01
    54   1     0.01   0.14   0.06     0.05   0.19  -0.06     0.23   0.09  -0.05
                     22                     23                     24
                      A                      A                      A
 Frequencies --    261.9663               276.7828               281.0840
 Red. masses --      5.9061                 6.1529                 6.4898
 Frc consts  --      0.2388                 0.2777                 0.3021
 IR Inten    --      3.8759                 1.3508                 8.8008
  Atom  AN      X      Y      Z        X      Y      Z        X      Y      Z
     1   6     0.02  -0.05  -0.02    -0.08   0.11   0.05     0.01   0.05   0.04
     2   6    -0.06  -0.00  -0.04     0.04  -0.05   0.12    -0.02  -0.07   0.11
     3   6    -0.02   0.00  -0.03     0.03  -0.12   0.07    -0.03  -0.14   0.06
     4   6     0.06  -0.03   0.00    -0.11  -0.04  -0.06    -0.04  -0.10  -0.08
     5   6     0.05  -0.05   0.01    -0.09   0.09  -0.10     0.00   0.05  -0.13
     6   6     0.06  -0.06   0.01    -0.10   0.12  -0.08     0.02   0.06  -0.11
     7   6     0.04  -0.03  -0.00     0.01   0.00  -0.08     0.03  -0.01  -0.11
     8   8    -0.01   0.07  -0.02     0.01  -0.04  -0.01     0.01   0.02  -0.01
     9   8    -0.02  -0.02   0.02     0.01   0.03   0.20    -0.00   0.03   0.29
    10  16    -0.04   0.01   0.00     0.03   0.01   0.02     0.00   0.02   0.03
    11   7    -0.05   0.01   0.01     0.04  -0.04  -0.03     0.02  -0.04  -0.05
    12   8    -0.04  -0.02   0.02     0.03   0.06  -0.08    -0.02   0.09  -0.10
    13   6     0.01   0.06   0.04    -0.01  -0.11  -0.03    -0.01   0.02  -0.13
    14   7     0.08   0.15  -0.01     0.07  -0.03  -0.12    -0.05   0.05   0.00
    15   6    -0.03  -0.06  -0.07     0.12  -0.04  -0.06    -0.14   0.02   0.06
    16   7     0.07   0.12  -0.05     0.12   0.06  -0.10    -0.10  -0.00   0.07
    17   6     0.10  -0.01   0.01     0.02  -0.02   0.06     0.02   0.06  -0.03
    18   6    -0.04   0.05   0.16    -0.02   0.03  -0.03     0.03  -0.02   0.06
    19  15     0.02   0.01   0.04     0.02   0.01  -0.01    -0.02   0.01   0.02
    20   6    -0.06  -0.11  -0.09     0.07  -0.11  -0.07    -0.10   0.08   0.05
    21   6    -0.03  -0.11  -0.00    -0.01  -0.09  -0.00    -0.01   0.06   0.00
    22   6     0.01  -0.11   0.10    -0.02  -0.01   0.05     0.02  -0.04  -0.03
    23   6    -0.01  -0.11  -0.00     0.02   0.05  -0.03    -0.03  -0.10   0.03
    24   6    -0.03  -0.10  -0.10     0.10   0.02  -0.09    -0.12  -0.07   0.08
    25   6     0.14  -0.04  -0.04     0.02  -0.03   0.09     0.03   0.06  -0.09
    26   6     0.06   0.01  -0.09    -0.02  -0.01   0.08     0.05   0.01  -0.10
    27   6    -0.02   0.07  -0.11    -0.09   0.01   0.08     0.07  -0.01  -0.09
    28   6     0.05   0.01  -0.04    -0.04  -0.03   0.09     0.03   0.03  -0.06
    29   6     0.13  -0.03   0.01    -0.00  -0.05   0.10     0.02   0.07  -0.05
    30   6     0.01   0.03   0.14    -0.05   0.07  -0.02     0.08  -0.07   0.04
    31   6     0.00   0.01   0.02    -0.07   0.05  -0.00     0.10  -0.06   0.00
    32   6    -0.10   0.04  -0.05    -0.09   0.02   0.00     0.10  -0.03  -0.01
    33   6    -0.16   0.09  -0.00    -0.05   0.03  -0.01     0.04  -0.03   0.02
    34   6    -0.14   0.11   0.11    -0.03   0.05  -0.03     0.03  -0.04   0.06
    35   1     0.01  -0.07  -0.04    -0.08   0.21   0.12     0.04   0.16   0.12
    36   1    -0.13   0.03  -0.06     0.15  -0.10   0.20    -0.01  -0.09   0.19
    37   1    -0.06   0.04  -0.04     0.13  -0.22   0.11    -0.04  -0.22   0.09
    38   1     0.07  -0.01   0.02    -0.14  -0.14  -0.14    -0.08  -0.21  -0.18
    39   1     0.03  -0.01   0.02     0.04  -0.06  -0.15    -0.02  -0.05  -0.14
    40   1    -0.06  -0.13  -0.12     0.08  -0.18  -0.10    -0.11   0.15   0.07
    41   1    -0.02  -0.10   0.01    -0.05  -0.15   0.02     0.05   0.13  -0.02
    42   1     0.05  -0.10   0.23    -0.07   0.01   0.13     0.08  -0.06  -0.08
    43   1    -0.01  -0.09   0.02     0.00   0.13  -0.02    -0.01  -0.18   0.02
    44   1    -0.06  -0.12  -0.13     0.14   0.07  -0.13    -0.17  -0.12   0.11
    45   1     0.19  -0.04  -0.05     0.03  -0.05   0.10     0.05   0.09  -0.11
    46   1     0.05   0.02  -0.11    -0.03  -0.01   0.05     0.07   0.00  -0.10
    47   1    -0.13   0.14  -0.16    -0.14   0.04   0.05     0.10  -0.06  -0.08
    48   1     0.00   0.01  -0.03    -0.05  -0.03   0.09     0.00   0.01  -0.04
    49   1     0.15  -0.05   0.02    -0.00  -0.05   0.14     0.02   0.08  -0.05
    50   1     0.06   0.00   0.17    -0.06   0.09  -0.03     0.11  -0.10   0.07
    51   1     0.08  -0.04  -0.02    -0.07   0.05   0.00     0.11  -0.07  -0.01
    52   1    -0.11   0.02  -0.13    -0.11  -0.02   0.02     0.11  -0.01  -0.04
    53   1    -0.22   0.12  -0.04    -0.03   0.02   0.00     0.01  -0.01  -0.01
    54   1    -0.21   0.17   0.16    -0.02   0.07  -0.03     0.02  -0.04   0.07
                     25                     26                     27
                      A                      A                      A
 Frequencies --    290.8758               303.1083               337.7947
 Red. masses --      5.6367                 8.1814                 9.7478
 Frc consts  --      0.2810                 0.4429                 0.6553
 IR Inten    --      1.8384                 2.1520                 3.9186
  Atom  AN      X      Y      Z        X      Y      Z        X      Y      Z
     1   6    -0.04   0.01  -0.00     0.08  -0.11  -0.04    -0.19  -0.19  -0.09
     2   6     0.06   0.01  -0.01    -0.10  -0.05  -0.05     0.03  -0.20  -0.13
     3   6     0.05   0.03  -0.00    -0.07  -0.05  -0.04     0.04  -0.11  -0.07
     4   6    -0.05   0.05   0.02     0.09  -0.10  -0.02    -0.16  -0.05   0.03
     5   6    -0.05   0.01   0.03     0.08  -0.06  -0.02    -0.10  -0.11   0.06
     6   6    -0.06   0.01   0.03     0.09  -0.10  -0.02    -0.15  -0.17  -0.01
     7   6     0.00   0.00   0.03     0.09  -0.06  -0.03     0.07  -0.03  -0.07
     8   8    -0.00  -0.02  -0.01     0.01   0.15  -0.11     0.10   0.26   0.11
     9   8     0.00  -0.00  -0.08    -0.03   0.02   0.25    -0.09   0.35   0.02
    10  16     0.01  -0.01  -0.01    -0.04   0.03   0.02     0.04   0.14   0.04
    11   7    -0.00   0.01   0.02     0.03  -0.02  -0.08     0.07  -0.01  -0.09
    12   8     0.04  -0.03   0.04    -0.11   0.02  -0.04     0.18  -0.18   0.18
    13   6     0.01  -0.08   0.06     0.20   0.19   0.30    -0.01   0.00  -0.07
    14   7     0.10  -0.01  -0.09     0.13  -0.04   0.13    -0.01  -0.01  -0.07
    15   6    -0.16   0.00   0.03    -0.01   0.01   0.00     0.01  -0.00  -0.00
    16   7     0.16   0.08  -0.10     0.10  -0.13   0.03    -0.05  -0.02   0.00
    17   6     0.08   0.14   0.09    -0.00  -0.00   0.01    -0.01   0.01  -0.00
    18   6    -0.01  -0.03  -0.11    -0.04  -0.01  -0.15     0.00  -0.00   0.03
    19  15     0.01   0.03   0.00     0.03  -0.02  -0.00    -0.02  -0.00  -0.01
    20   6    -0.14   0.03   0.01     0.01   0.03   0.02     0.02  -0.00   0.02
    21   6    -0.03   0.01  -0.01     0.01   0.03  -0.01     0.01  -0.00   0.01
    22   6     0.03  -0.10   0.02     0.00   0.02  -0.03    -0.01   0.01  -0.02
    23   6    -0.03  -0.16   0.03     0.01   0.02   0.02     0.00   0.01  -0.00
    24   6    -0.14  -0.12   0.02    -0.00   0.02   0.02     0.02   0.01   0.02
    25   6     0.10   0.14   0.00    -0.03   0.01   0.01     0.01  -0.00   0.00
    26   6     0.05   0.04  -0.06    -0.02   0.01   0.02    -0.00  -0.00  -0.01
    27   6    -0.00  -0.06   0.01    -0.00  -0.01   0.03    -0.00  -0.00  -0.01
    28   6    -0.05  -0.00   0.11    -0.01  -0.01   0.02     0.00  -0.01   0.00
    29   6    -0.01   0.12   0.15    -0.03   0.00   0.01    -0.00   0.00   0.00
    30   6    -0.07  -0.03  -0.09    -0.15   0.03  -0.12     0.03  -0.00   0.02
    31   6    -0.05   0.01  -0.02    -0.15   0.07  -0.01     0.03  -0.01   0.00
    32   6     0.04   0.04   0.02    -0.07   0.08   0.03     0.01  -0.02  -0.00
    33   6     0.05  -0.05  -0.01    -0.00  -0.01  -0.03     0.01   0.00   0.01
    34   6     0.03  -0.09  -0.08    -0.02  -0.05  -0.14     0.01   0.01   0.03
    35   1    -0.05  -0.01  -0.02     0.13  -0.13  -0.04    -0.27  -0.22  -0.14
    36   1     0.13  -0.01  -0.03    -0.22  -0.01  -0.07     0.16  -0.23  -0.18
    37   1     0.11   0.02  -0.01    -0.17   0.01  -0.05     0.18  -0.07  -0.10
    38   1    -0.05   0.08   0.05     0.11  -0.11  -0.03    -0.18   0.00   0.06
    39   1     0.05  -0.00   0.02     0.17  -0.04  -0.03     0.08   0.03  -0.01
    40   1    -0.15   0.08   0.01     0.01   0.04   0.05     0.02  -0.00   0.02
    41   1     0.03   0.09  -0.05     0.00   0.03  -0.01     0.00  -0.01   0.02
    42   1     0.11  -0.11   0.03    -0.00   0.02  -0.06    -0.03   0.01  -0.05
    43   1    -0.00  -0.23   0.05     0.01   0.01   0.03    -0.00   0.02  -0.01
    44   1    -0.21  -0.20   0.03     0.00   0.02   0.03     0.03   0.02   0.03
    45   1     0.15   0.19  -0.04    -0.04   0.01   0.02     0.01  -0.00   0.00
    46   1     0.06   0.02  -0.16    -0.03   0.02   0.01    -0.00   0.00  -0.02
[...]
 Electronic               0.000              0.000              0.000
 Translational            0.784              2.981             43.805
 Rotational               0.784              2.981             36.310
 Vibrational            270.977             91.579             96.675
 Vibration     1          0.523              1.985              6.527
 Vibration     2          0.524              1.984              5.765
 Vibration     3          0.524              1.983              5.618
 Vibration     4          0.524              1.982              5.484
 Vibration     5          0.525              1.980              5.087
 Vibration     6          0.527              1.974              4.477
 Vibration     7          0.527              1.972              4.395
 Vibration     8          0.528              1.969              4.166
 Vibration     9          0.530              1.959              3.750
 Vibration    10          0.530              1.959              3.739
 Vibration    11          0.532              1.952              3.522
 Vibration    12          0.534              1.945              3.345
 Vibration    13          0.543              1.913              2.796
 Vibration    14          0.548              1.895              2.585
 Vibration    15          0.556              1.866              2.323
 Vibration    16          0.570              1.814              1.979
 Vibration    17          0.573              1.805              1.927
 Vibration    18          0.586              1.759              1.713
 Vibration    19          0.603              1.701              1.503
 Vibration    20          0.604              1.697              1.490
 Vibration    21          0.609              1.680              1.435
 Vibration    22          0.619              1.648              1.343
 Vibration    23          0.622              1.638              1.318
 Vibration    24          0.629              1.616              1.262
 Vibration    25          0.637              1.589              1.196
 Vibration    26          0.664              1.507              1.028
 Vibration    27          0.682              1.452              0.933
 Vibration    28          0.695              1.414              0.873
 Vibration    29          0.719              1.346              0.776
 Vibration    30          0.726              1.326              0.750
 Vibration    31          0.728              1.323              0.746
 Vibration    32          0.734              1.305              0.723
 Vibration    33          0.766              1.222              0.628
 Vibration    34          0.772              1.206              0.610
 Vibration    35          0.778              1.192              0.596
 Vibration    36          0.790              1.161              0.564
 Vibration    37          0.793              1.153              0.557
 Vibration    38          0.810              1.113              0.519
 Vibration    39          0.830              1.066              0.478
 Vibration    40          0.844              1.035              0.452
 Vibration    41          0.853              1.017              0.437
 Vibration    42          0.865              0.990              0.417
                       Q            Log10(Q)             Ln(Q)
 Total Bot       0.713334-188       -188.146707       -433.223803
 Total V=0       0.388266D+27         26.589130         61.223734
 Vib (Bot)       0.120689-203       -203.918332       -469.539312
 Vib (Bot)    1  0.981408D+01          0.991850          2.283818
 Vib (Bot)    2  0.668046D+01          0.824806          1.899186
 Vib (Bot)    3  0.620204D+01          0.792535          1.824878
 Vib (Bot)    4  0.579503D+01          0.763056          1.757000
 Vib (Bot)    5  0.473964D+01          0.675746          1.555962
 Vib (Bot)    6  0.347705D+01          0.541211          1.246184
 Vib (Bot)    7  0.333449D+01          0.523029          1.204319
 Vib (Bot)    8  0.296513D+01          0.472044          1.086921
 Vib (Bot)    9  0.239385D+01          0.379097          0.872904
 Vib (Bot)   10  0.237984D+01          0.376549          0.867035
 Vib (Bot)   11  0.212570D+01          0.327502          0.754102
 Vib (Bot)   12  0.193833D+01          0.287427          0.661825
 Vib (Bot)   13  0.144652D+01          0.160325          0.369161
 Vib (Bot)   14  0.128827D+01          0.110006          0.253297
 Vib (Bot)   15  0.111220D+01          0.046183          0.106341
 Vib (Bot)   16  0.910086D+00         -0.040917         -0.094216
 Vib (Bot)   17  0.881563D+00         -0.054747         -0.126059
 Vib (Bot)   18  0.772238D+00         -0.112249         -0.258463
 Vib (Bot)   19  0.672634D+00         -0.172221         -0.396554
 Vib (Bot)   20  0.666661D+00         -0.176095         -0.405473
 Vib (Bot)   21  0.641883D+00         -0.192544         -0.443349
 Vib (Bot)   22  0.601718D+00         -0.220607         -0.507967
 Vib (Bot)   23  0.590807D+00         -0.228554         -0.526266
 Vib (Bot)   24  0.567102D+00         -0.246339         -0.567216
 Vib (Bot)   25  0.539515D+00         -0.267997         -0.617085
 Vib (Bot)   26  0.471517D+00         -0.326502         -0.751800
 Vib (Bot)   27  0.433870D+00         -0.362640         -0.835011
 Vib (Bot)   28  0.410581D+00         -0.386601         -0.890181
 Vib (Bot)   29  0.373462D+00         -0.427753         -0.984938
 Vib (Bot)   30  0.363540D+00         -0.439448         -1.011866
 Vib (Bot)   31  0.362097D+00         -0.441175         -1.015843
 Vib (Bot)   32  0.353434D+00         -0.451692         -1.040059
 Vib (Bot)   33  0.317156D+00         -0.498727         -1.148362
 Vib (Bot)   34  0.310518D+00         -0.507913         -1.169512
 Vib (Bot)   35  0.305196D+00         -0.515421         -1.186800
 Vib (Bot)   36  0.292985D+00         -0.533155         -1.227635
 Vib (Bot)   37  0.290224D+00         -0.537267         -1.237102
 Vib (Bot)   38  0.275691D+00         -0.559577         -1.288474
 Vib (Bot)   39  0.259882D+00         -0.585223         -1.347526
 Vib (Bot)   40  0.249826D+00         -0.602362         -1.386990
 Vib (Bot)   41  0.244109D+00         -0.612415         -1.410139
 Vib (Bot)   42  0.235943D+00         -0.627192         -1.444164
 Vib (V=0)       0.656908D+11         10.817505         24.908225
 Vib (V=0)    1  0.103268D+02          1.013966          2.334743
 Vib (V=0)    2  0.719914D+01          0.857281          1.973962
 Vib (V=0)    3  0.672216D+01          0.827509          1.905410
 Vib (V=0)    4  0.631656D+01          0.800480          1.843174
 Vib (V=0)    5  0.526594D+01          0.721476          1.661261
 Vib (V=0)    6  0.401282D+01          0.603449          1.389493
 Vib (V=0)    7  0.387177D+01          0.587909          1.353711
 Vib (V=0)    8  0.350699D+01          0.544935          1.254759
 Vib (V=0)    9  0.294551D+01          0.469161          1.080283
 Vib (V=0)   10  0.293180D+01          0.467135          1.075617
 Vib (V=0)   11  0.268371D+01          0.428736          0.987202
 Vib (V=0)   12  0.250178D+01          0.398248          0.917001
 Vib (V=0)   13  0.203050D+01          0.307602          0.708281
 Vib (V=0)   14  0.188189D+01          0.274595          0.632279
 Vib (V=0)   15  0.171942D+01          0.235383          0.541988
 Vib (V=0)   16  0.153839D+01          0.187067          0.430738
 Vib (V=0)   17  0.151349D+01          0.179978          0.414416
 Vib (V=0)   18  0.141997D+01          0.152280          0.350638
 Vib (V=0)   19  0.133811D+01          0.126493          0.291262
 Vib (V=0)   20  0.133333D+01          0.124937          0.287679
 Vib (V=0)   21  0.131364D+01          0.118477          0.272804
 Vib (V=0)   22  0.128235D+01          0.108005          0.248691
 Vib (V=0)   23  0.127399D+01          0.105164          0.242150
 Vib (V=0)   24  0.125605D+01          0.099005          0.227968
 Vib (V=0)   25  0.123558D+01          0.091870          0.211539
 Vib (V=0)   26  0.118726D+01          0.074546          0.171650
 Vib (V=0)   27  0.116200D+01          0.065206          0.150142
 Vib (V=0)   28  0.114698D+01          0.059554          0.137128
 Vib (V=0)   29  0.112408D+01          0.050797          0.116964
 Vib (V=0)   30  0.111819D+01          0.048516          0.111713
 Vib (V=0)   31  0.111734D+01          0.048187          0.110955
 Vib (V=0)   32  0.111230D+01          0.046223          0.106433
 Vib (V=0)   33  0.109210D+01          0.038264          0.088107
 Vib (V=0)   34  0.108858D+01          0.036859          0.084870
 Vib (V=0)   35  0.108579D+01          0.035744          0.082304
 Vib (V=0)   36  0.107952D+01          0.033230          0.076514
 Vib (V=0)   37  0.107813D+01          0.032670          0.075225
 Vib (V=0)   38  0.107097D+01          0.029777          0.068564
 Vib (V=0)   39  0.106351D+01          0.026740          0.061571
 Vib (V=0)   40  0.105894D+01          0.024871          0.057268
 Vib (V=0)   41  0.105641D+01          0.023832          0.054874
 Vib (V=0)   42  0.105287D+01          0.022376          0.051523
 Electronic      0.100000D+01          0.000000          0.000000
 Translational   0.307339D+09          8.487617         19.543461
 Rotational      0.192313D+08          7.284008         16.772048
 ***** Axes restored to original set *****
 -------------------------------------------------------------------
 Center     Atomic                   Forces (Hartrees/Bohr)
 Number     Number              X              Y              Z
 -------------------------------------------------------------------
      1        6          -0.000000182   -0.000001051   -0.000000444
      2        6           0.000000382   -0.000000460   -0.000000432
      3        6          -0.000000278   -0.000000083   -0.000000485
      4        6           0.000000330   -0.000000639   -0.000000337
      5        6           0.000000769   -0.000000871    0.000001260
      6        6          -0.000001102    0.000000426   -0.000000493
      7        6          -0.000001781   -0.000002876   -0.000000543
      8        8           0.000000367   -0.000000792    0.000000930
      9        8           0.000000648   -0.000001216    0.000001084
     10       16          -0.000000179   -0.000002371    0.000000930
     11        7           0.000000874   -0.000001683    0.000000750
     12        8          -0.000000342   -0.000000616    0.000000544
     13        6           0.000000686    0.000001389    0.000002283
     14        7          -0.000000923   -0.000002483   -0.000000460
     15        6           0.000000825    0.000000314   -0.000000213
     16        7          -0.000000526    0.000000035    0.000000788
     17        6           0.000001373    0.000001331    0.000000889
     18        6           0.000001248    0.000001892    0.000000116
     19       15          -0.000000520   -0.000000953   -0.000000505
     20        6          -0.000000977   -0.000000003   -0.000002093
     21        6          -0.000001284   -0.000000463   -0.000000831
     22        6          -0.000000958    0.000000408   -0.000001280
     23        6          -0.000000558    0.000000248   -0.000001291
     24        6          -0.000000452    0.000001014   -0.000000348
     25        6           0.000000691   -0.000000531    0.000001037
     26        6           0.000000213    0.000000645    0.000000459
     27        6           0.000000839    0.000000591    0.000000684
     28        6           0.000001028    0.000000511    0.000000333
     29        6          -0.000000802    0.000001470   -0.000000103
     30        6          -0.000000916   -0.000001331    0.000000854
     31        6           0.000000755    0.000000983    0.000000255
     32        6           0.000000570    0.000001149    0.000000428
     33        6           0.000000319    0.000000409    0.000000181
     34        6           0.000000764   -0.000000245    0.000000876
     35        1          -0.000000716   -0.000000921   -0.000000862
     36        1          -0.000001499   -0.000000580   -0.000000001
     37        1          -0.000000238    0.000000191   -0.000000454
     38        1          -0.000000563    0.000000264    0.000000103
     39        1           0.000000111   -0.000001969   -0.000000339
     40        1          -0.000000788   -0.000000313   -0.000000778
     41        1          -0.000000911   -0.000000234   -0.000001659
     42        1          -0.000001302    0.000000134   -0.000001774
     43        1          -0.000001048    0.000000358   -0.000001313
     44        1          -0.000000228    0.000001360   -0.000000233
     45        1           0.000001213   -0.000000414    0.000000791
     46        1           0.000000929   -0.000000095    0.000001142
     47        1           0.000000644    0.000000918    0.000000581
     48        1           0.000000267    0.000001268   -0.000000103
     49        1           0.000000124    0.000001193   -0.000000945
     50        1           0.000000668    0.000001789    0.000000136
     51        1           0.000000796    0.000001718    0.000000404
     52        1           0.000000778    0.000001299    0.000000575
     53        1           0.000000565    0.000000487    0.000000569
     54        1           0.000000298   -0.000000601   -0.000000662
 -------------------------------------------------------------------
 Cartesian Forces:  Max     0.000002876 RMS     0.000000928
 FormGI is forming the generalized inverse of G from B-inverse, IUseBI=4.

 ----------------------------------------------------------------------

 Electric dipole moment (input orientation):
 (Debye = 10**-18 statcoulomb cm , SI units = C m)
                  (au)            (Debye)         (10**-30 SI)
   Tot        0.735682D+01      0.186992D+02      0.623738D+02
   x          0.539766D+01      0.137195D+02      0.457632D+02
   y          0.395653D+01      0.100565D+02      0.335449D+02
   z          0.305516D+01      0.776544D+01      0.259027D+02

 Dipole polarizability, Alpha (input orientation).
 (esu units = cm**3 , SI units = C**2 m**2 J**-1)
 Alpha(0;0):
               (au)            (10**-24 esu)      (10**-40 SI)
   iso        0.411684D+03      0.610053D+02      0.678775D+02
   aniso      0.741533D+02      0.109884D+02      0.122262D+02
   xx         0.441880D+03      0.654799D+02      0.728562D+02
   yx         0.107863D+02      0.159837D+01      0.177843D+01
   yy         0.406215D+03      0.601948D+02      0.669758D+02
   zx        -0.293997D+02     -0.435658D+01     -0.484735D+01
   zy         0.869844D+01      0.128898D+01      0.143418D+01
   zz         0.386958D+03      0.573412D+02      0.638007D+02

 ----------------------------------------------------------------------

 Dipole orientation:
     6         -3.68502704          5.38166223         -1.20479782
     6         -5.59125393          4.82902947          0.50307243
     6         -7.08208197          2.67858743          0.13689782
     6         -6.68940282          1.12110319         -1.93251141
     6         -4.76632350          1.69702645         -3.63460569
     6         -3.23978205          3.81867025         -3.28927050
     6         -1.25481493          4.44337564         -5.16474851
     8         -0.10141806         -1.31789776         -6.36076104
     8         -2.88989391         -0.27266880         -9.99665068
    16         -1.95794598          0.35580176         -7.50472897
     7         -1.13311864          3.26639037         -7.39765103
     8         -4.53221714          0.13285077         -5.69167128
     6          1.72270699          3.48871484         -3.02859279
     7          2.61109153          1.77635728         -1.95021834
     6          2.25360266          1.59177364          4.09202082
     7          3.77818660         -0.11996648         -0.85035570
     6         -0.59286136         -2.33195260          1.51727458
     6          4.67865750         -3.31176900          3.05475589
    15          2.52309325         -0.97439122          1.85682055
     6          0.23430091          3.28455033          3.85406067
     6          0.09560059          5.38680263          5.42254968
     6          1.96155343          5.80236169          7.23279937
     6          3.97200159          4.11923400          7.47527301
     6          4.12954445          2.01775260          5.90443909
     6         -1.23889179         -3.37716585         -0.82042154
     6         -3.57403735         -4.54489227         -1.12379219
     6         -5.25354309         -4.67893933          0.89634975
     6         -4.61903313         -3.62235643          3.22453283
     6         -2.29389149         -2.44125668          3.54191066
     6          3.79878590         -5.25099156          4.61844963
     6          5.49626965         -6.99296770          5.61338187
     6          8.06049143         -6.80417903          5.04923248
     6          8.93676590         -4.87526061          3.48604351
     6          7.25389233         -3.12204748          2.48572712
     1         -2.49027558          7.03019503         -0.93284759
     1         -5.92031746          6.05415895          2.11361477
     1         -8.56834476          2.21877311          1.47288114
     1         -7.83306501         -0.54715683         -2.25381766
     1         -0.72967516          6.42435515         -5.25772469
     1         -1.24175554          2.95400121          2.46814143
     1         -1.47353869          6.69434291          5.23425091
     1          1.84685767          7.44015165          8.46254772
     1          5.41940630          4.44033139          8.89187256
     1          5.70095511          0.71289670          6.09878325
     1          0.04914468         -3.23733918         -2.40906271
     1         -4.08279563         -5.32534755         -2.95001428
     1         -7.07512400         -5.59137586          0.65353203
     1         -5.93825811         -3.70956280          4.79208577
     1         -1.81539587         -1.60193982          5.35275374
     1          1.79921444         -5.42084657          5.04572216
     1          4.81274918         -8.50323709          6.81999218
     1          9.38008175         -8.17003736          5.82442117
     1         10.93314127         -4.73614850          3.03924869
     1          7.92090643         -1.62576154          1.25364551

 Electric dipole moment (dipole orientation):
 (Debye = 10**-18 statcoulomb cm , SI units = C m)
                  (au)            (Debye)         (10**-30 SI)
   Tot        0.735682D+01      0.186992D+02      0.623738D+02
   x          0.000000D+00      0.000000D+00      0.000000D+00
   y          0.000000D+00      0.000000D+00      0.000000D+00
   z          0.735682D+01      0.186992D+02      0.623738D+02

 Dipole polarizability, Alpha (dipole orientation).
 (esu units = cm**3 , SI units = C**2 m**2 J**-1)
 Alpha(0;0):
               (au)            (10**-24 esu)      (10**-40 SI)
   iso        0.411684D+03      0.610053D+02      0.678775D+02
   aniso      0.741533D+02      0.109884D+02      0.122262D+02
   xx         0.436106D+03      0.646243D+02      0.719042D+02
   yx        -0.759371D+01     -0.112527D+01     -0.125203D+01
   yy         0.382371D+03      0.566616D+02      0.630445D+02
   zx         0.272914D+02      0.404417D+01      0.449975D+01
   zy         0.170473D+02      0.252615D+01      0.281072D+01
   zz         0.416575D+03      0.617300D+02      0.686839D+02

 ----------------------------------------------------------------------

 This type of calculation cannot be archived.


 LIFE IS SO UNCERTAIN - EAT DESSERT FIRST.
 Job cpu time:       0 days  0 hours  0 minutes  1.9 seconds.
 Elapsed time:       0 days  0 hours  0 minutes  0.5 seconds.
 File lengths (MBytes):  RWF=      6 Int=      0 D2E=      0 Chk=      8 Scr=      1
 Normal termination of Gaussian 16 at Sat Apr  4 18:13:10 2020.
